# t (s)	mx ()	my ()	mz ()	m.region1x ()	m.region1y ()	m.region1z ()
0	0	1	0	0	1	0
1.023e-12	-0.017731348	0.99978966	0.009982723	-0.047599956	0.9988061	0.010983329
2.047e-12	-0.035111845	0.9991695	0.020035643	-0.0946117	0.9952464	0.023094002
4.095e-12	-0.06873328	0.99676985	0.04030113	-0.18581551	0.9812932	0.05036079
8.191e-12	-0.13122554	0.98781693	0.08132623	-0.3515541	0.9291381	0.11450803
1.4972828340676483e-11	-0.220147	0.96325797	0.15001152	-0.5602356	0.7945579	0.2341155
2.1826506243351783e-11	-0.2913128	0.9299259	0.2193706	-0.68547994	0.63833666	0.35018128
2.8778601675817714e-11	-0.34488237	0.89114666	0.2887151	-0.7457694	0.49277627	0.44829008
3.5932789160443396e-11	-0.38175395	0.8490421	0.35826015	-0.7663551	0.37074354	0.52459466
4.3319992613015326e-11	-0.40223038	0.8054433	0.4275574	-0.7675247	0.27401477	0.5794529
5.087465490912129e-11	-0.40680104	0.7620678	0.49535307	-0.76295507	0.19824818	0.61525226
5.844864533839071e-11	-0.39692003	0.7202853	0.5598918	-0.75975084	0.1366232	0.6356422
6.604943911993859e-11	-0.3745095	0.6798227	0.62096417	-0.75976807	0.081653655	0.6449814
7.373992549327697e-11	-0.34107763	0.63957506	0.67876637	-0.76216525	0.028134678	0.64669746
8.158517756149315e-11	-0.29780683	0.59800726	0.73334444	-0.76526505	-0.026669934	0.64308447
8.962169849723859e-11	-0.24596953	0.5533599	0.7843446	-0.76756656	-0.083547056	0.6354215
9.785896844736617e-11	-0.1872409	0.5037406	0.8310618	-0.76822674	-0.14212947	0.62412035
1.062802925477399e-10	-0.123912275	0.44734046	0.872511	-0.767118	-0.20157754	0.60892594
1.1485907861414117e-10	-0.058834426	0.38265848	0.90760005	-0.76458275	-0.2610944	0.58917284
1.2366383981110026e-10	0.0054404456	0.3079192	0.9355046	-0.761046	-0.32069182	0.56376386
1.3252973604703588e-10	0.06448282	0.22416487	0.95471644	-0.7569036	-0.378819	0.5323907
1.4155055115062344e-10	0.11588488	0.13121504	0.96463203	-0.75221825	-0.43552753	0.494282
1.5069118871022507e-10	0.15688165	0.031053767	0.9644817	-0.74687576	-0.48983338	0.44950363
1.5993911643054423e-10	0.18585815	-0.07365101	0.9538517	-0.74055797	-0.54084015	0.3985656
1.6898980487246352e-10	0.20217253	-0.1764016	0.9334868	-0.733076	-0.58636445	0.3442865
1.779856747435252e-10	0.2079172	-0.27595758	0.90395683	-0.7239285	-0.62698793	0.28729257
1.8711609105548947e-10	0.20549054	-0.3719047	0.86518604	-0.7124947	-0.66345763	0.22775224
1.9650657105890937e-10	0.19772963	-0.46324736	0.81689596	-0.6981467	-0.6961868	0.16611895
2.0556818430712077e-10	0.18895157	-0.54309356	0.7630428	-0.6816015	-0.7235937	0.10728523
2.1427722875342537e-10	0.18292624	-0.6115072	0.7053027	-0.66305834	-0.7465602	0.051850863
2.2271864688060546e-10	0.18254845	-0.66968095	0.64433914	-0.6424498	-0.7661325	-0.00080035155
2.310241817793037e-10	0.19024499	-0.7187521	0.58004797	-0.61937565	-0.78319883	-0.05190436
2.3911114701845196e-10	0.20780091	-0.75817525	0.51375556	-0.59383535	-0.79798627	-0.101598695
2.4709957975019807e-10	0.23681754	-0.7880327	0.4450796	-0.56506515	-0.8108974	-0.15139462
2.5512754837680066e-10	0.27912188	-0.8073403	0.37329718	-0.53188556	-0.8220004	-0.2030257
2.6305819640363693e-10	0.33464187	-0.8135887	0.3001959	-0.49409294	-0.8306114	-0.2565088
2.7095363114160124e-10	0.40335655	-0.80413425	0.22597675	-0.45070004	-0.83588415	-0.31311107
2.788096092706286e-10	0.4837094	-0.7755966	0.15167946	-0.4011378	-0.8362857	-0.37364733
2.8638242854078233e-10	0.5697743	-0.7263451	0.08086741	-0.34701952	-0.82987076	-0.4368172
2.9381412276490423e-10	0.65828645	-0.6539755	0.013639698	-0.28812003	-0.81407595	-0.50418043
3.0125031611442464e-10	0.7451271	-0.5553336	-0.0495881	-0.22462842	-0.78479075	-0.5775671
3.086908412665455e-10	0.82307976	-0.42957342	-0.10672954	-0.15924492	-0.7366152	-0.65724945
3.1580420657257493e-10	0.8817425	-0.2854608	-0.15355495	-0.09975219	-0.6667343	-0.7385396
3.228333558732523e-10	0.91744524	-0.12397431	-0.19038011	-0.05154629	-0.56840146	-0.821072
3.2991129346476517e-10	0.9251976	0.051452823	-0.21624151	-0.025440972	-0.43481663	-0.90006953
3.3689827929918186e-10	0.90153635	0.22901055	-0.22942232	-0.037320428	-0.26861715	-0.96238756
3.437289335957878e-10	0.84773797	0.39794075	-0.22973576	-0.10056474	-0.0825188	-0.99129426
3.505241512675856e-10	0.7665356	0.5529988	-0.21763408	-0.22188891	0.10346587	-0.9692538
3.573642498182953e-10	0.6619861	0.6888745	-0.19349152	-0.39313716	0.25916797	-0.88175184
3.6426304735777045e-10	0.540464	0.8003779	-0.15810311	-0.58496714	0.35511398	-0.72859716
3.710924842995209e-10	0.4121561	0.8832047	-0.11367646	-0.75498235	0.38091898	-0.5330638
3.778350013945631e-10	0.2851274	0.93835735	-0.06236539	-0.876676	0.35280704	-0.3262356
3.846045499400604e-10	0.1636352	0.9693999	-0.0051787244	-0.9460448	0.29607612	-0.13037358
3.9152180442104004e-10	0.050856277	0.97967386	0.05734981	-0.97152275	0.23292077	0.041050673
3.985668590540915e-10	-0.04860657	0.97246337	0.123602465	-0.9673885	0.17980278	0.17808664
4.055896393536134e-10	-0.13032952	0.95221066	0.19076693	-0.95048535	0.1446278	0.2749737
4.126823477582098e-10	-0.19462371	0.922807	0.25852853	-0.9344475	0.1247723	0.33349735
4.1987320794837e-10	-0.24155205	0.8874304	0.3261862	-0.9279109	0.111713395	0.35562134
4.2706843409128426e-10	-0.27126637	0.84915113	0.39209786	-0.9334152	0.09373574	0.34622476
4.3422829471562245e-10	-0.28523704	0.80999595	0.45537198	-0.94722295	0.06066502	0.31457973
4.4135872122594143e-10	-0.28534466	0.77091616	0.5156989	-0.9622315	0.008015318	0.2717566
4.484441771610959e-10	-0.27345818	0.73229706	0.57268953	-0.97153425	-0.061689444	0.22809651
4.555057135325299e-10	-0.25131738	0.69381183	0.6263045	-0.97122395	-0.1414646	0.19061634
4.625633015552433e-10	-0.22047195	0.6547773	0.6764763	-0.96097517	-0.223012	0.16242585
4.696546942072983e-10	-0.1822438	0.61415786	0.72320247	-0.943068	-0.2996145	0.14315292
4.768226450638834e-10	-0.13782308	0.5707035	0.7663997	-0.920825	-0.36728525	0.13011223
4.838935646728656e-10	-0.08991795	0.52450556	0.8047364	-0.89793336	-0.42334944	0.11979669
4.90680135203743e-10	-0.041653525	0.47624782	0.8372351	-0.876717	-0.4684245	0.109029934
4.971671997560771e-10	0.0051796343	0.4259746	0.8640854	-0.85737026	-0.50563073	0.09607528
5.034064768745056e-10	0.049624793	0.3734947	0.8857756	-0.8391091	-0.5379137	0.080681145
5.094783264529368e-10	0.09120969	0.3184626	0.90277755	-0.82101214	-0.56729853	0.063444525
5.154474062497293e-10	0.12951697	0.26068363	0.9153651	-0.80250716	-0.59478694	0.04532353
5.213657935259534e-10	0.16414632	0.20011011	0.9236653	-0.7834673	-0.6206586	0.027226236
5.272809549256916e-10	0.19473842	0.13678636	0.9277008	-0.76413935	-0.64477944	0.009697971
5.332237791013663e-10	0.22091836	0.07100164	0.92741007	-0.74503934	-0.66679084	-0.0072346404
5.392029915208733e-10	0.24234365	0.003386376	0.9227147	-0.72675276	-0.6863156	-0.024137735
5.452103404661438e-10	0.25882718	-0.0651435	0.9135944	-0.7096528	-0.703175	-0.042110406
5.511843198163223e-10	0.27036884	-0.13302076	0.90024364	-0.6937611	-0.71742606	-0.062358506
5.570965678580295e-10	0.2774139	-0.19910817	0.8829647	-0.67844117	-0.72956836	-0.08597498
5.629077185892568e-10	0.28065902	-0.26228422	0.8622062	-0.6627022	-0.740235	-0.113395676
5.686448463367694e-10	0.28098363	-0.32231137	0.8382273	-0.6452881	-0.7501221	-0.1446326
5.74314436592421e-10	0.27928516	-0.37885025	0.8113237	-0.62517196	-0.7596779	-0.1790137
5.799362696178046e-10	0.27646843	-0.43179718	0.7816968	-0.60163915	-0.76911664	-0.21556401
5.855440048636027e-10	0.2734202	-0.48122603	0.749414	-0.5743152	-0.7784269	-0.25330544
5.911653116852333e-10	0.27103043	-0.5271553	0.7145099	-0.5432012	-0.78737134	-0.29137507
5.968025192580814e-10	0.2702095	-0.5693947	0.6771392	-0.5087106	-0.79549205	-0.32909244
6.02428084340226e-10	0.2718427	-0.6075723	0.63766444	-0.4716034	-0.802154	-0.36608464
6.080033388710961e-10	0.27669793	-0.6413215	0.5965664	-0.43270946	-0.80664	-0.40244707
6.135134125109631e-10	0.2853971	-0.6704725	0.554181	-0.39250863	-0.8082266	-0.43883127
6.189778444538961e-10	0.2984927	-0.69498706	0.510572	-0.35093826	-0.80614054	-0.47628483
6.244230412519205e-10	0.31650347	-0.7147051	0.46572036	-0.3075989	-0.79945785	-0.51587
6.298250780449195e-10	0.33967724	-0.72916	0.42001945	-0.2623435	-0.7871672	-0.5580518
6.352004415601267e-10	0.36825117	-0.7379171	0.37354225	-0.21474445	-0.76804215	-0.6032263
6.405471402013138e-10	0.40223008	-0.7403634	0.32653528	-0.16477366	-0.74068433	-0.6512538
6.458154827477703e-10	0.4410369	-0.7358693	0.2797019	-0.11333799	-0.7038716	-0.70116043
6.509805594426637e-10	0.48390615	-0.7239582	0.23356391	-0.061753135	-0.65637046	-0.7518545
6.56085975577559e-10	0.53043425	-0.7040028	0.18805324	-0.011319336	-0.5962294	-0.80269533
6.611859111917669e-10	0.58023727	-0.67506576	0.14304382	0.03592755	-0.52083755	-0.85287315
6.663252680910264e-10	0.63268405	-0.6359545	0.09856458	0.076615475	-0.42716902	-0.9009032
6.715186449859961e-10	0.686535	-0.5855386	0.05500704	0.10542991	-0.31272706	-0.94395983
6.76681390396791e-10	0.7391534	-0.5240376	0.013644982	0.11514555	-0.17889783	-0.977082
6.817657565543112e-10	0.7880993	-0.45217925	-0.024610626	0.09882611	-0.029863011	-0.99459827
6.868353774743415e-10	0.83192766	-0.3695831	-0.059692606	0.05000685	0.12944579	-0.99019456
6.919642968492859e-10	0.8689582	-0.27560458	-0.09143469	-0.03679317	0.28999364	-0.9560587
6.971991620745437e-10	0.8968668	-0.1701977	-0.11928581	-0.16263568	0.4365816	-0.8843602
7.023977046837416e-10	0.91261	-0.05795833	-0.14178063	-0.31486803	0.54709995	-0.7747805
7.07609879989275e-10	0.9147471	0.059663206	-0.15862806	-0.47729975	0.6096665	-0.63155955
7.128098437672673e-10	0.9021988	0.17919014	-0.16931696	-0.62925076	0.6202309	-0.4663259
7.180413269140291e-10	0.8744401	0.2984644	-0.17361642	-0.7556105	0.5849057	-0.2912771
7.232669464535289e-10	0.83201987	0.41341427	-0.17132425	-0.84646374	0.516499	-0.12007761
7.284016661930258e-10	0.7772375	0.51936686	-0.16270609	-0.90006095	0.43124494	0.036075413
7.334630152146027e-10	0.71231586	0.61459935	-0.14823629	-0.921911	0.3417786	0.17391354
7.385786500154185e-10	0.6379522	0.6996746	-0.12792675	-0.91875833	0.25507063	0.2955851
7.437603808576203e-10	0.556312	0.7730864	-0.10200427	-0.89654493	0.1774967	0.40116355
7.489192311401907e-10	0.47149935	0.8327694	-0.07142031	-0.861989	0.11448485	0.4899355
7.540239343703969e-10	0.38677192	0.87865126	-0.03709174	-0.82132137	0.06810267	0.5632338
7.59142542013892e-10	0.30344698	0.9120287	0.00073823845	-0.77898955	0.038118668	0.6235012
7.64335638496188e-10	0.22274977	0.9339477	0.041934144	-0.7387155	0.024056315	0.67199016
7.695025332706716e-10	0.14807633	0.94510657	0.08508507	-0.7049014	0.024867853	0.70794237
7.74663332129939e-10	0.08043488	0.9471122	0.12973115	-0.6802802	0.037896194	0.7315055
7.798539099471669e-10	0.02034808	0.9414479	0.1756379	-0.66694766	0.059752904	0.74240875
7.850639044117515e-10	-0.03137877	0.9295212	0.22223039	-0.66633135	0.08594251	0.7402381
7.902788729235443e-10	-0.07429766	0.9127149	0.26894775	-0.67845	0.11117624	0.7253019
7.955136131180986e-10	-0.108493246	0.8921748	0.3155468	-0.7018208	0.1302869	0.6988368
8.007932994604994e-10	-0.13420542	0.8687714	0.3619211	-0.7336971	0.13890691	0.6629647
8.060968577889098e-10	-0.15156272	0.84336954	0.40759546	-0.7700874	0.134177	0.62095815
8.114447953639415e-10	-0.16099066	0.81644344	0.45249203	-0.80696154	0.115343764	0.5762179
8.168549468746567e-10	-0.16288736	0.7882671	0.49652165	-0.840699	0.083534546	0.53202844
8.223311089741124e-10	-0.15765361	0.7589982	0.5394864	-0.868538	0.041532002	0.4912246
8.278070223259154e-10	-0.14592718	0.7290126	0.58067644	-0.8888095	-0.006247859	0.45610887
8.332759414130272e-10	-0.12845124	0.6982388	0.6198933	-0.901644	-0.055736516	0.4272641
8.387488934540044e-10	-0.10591999	0.6663939	0.65706706	-0.9081843	-0.10380639	0.40418372
8.442361943243848e-10	-0.07900513	0.6331115	0.69210196	-0.9100015	-0.14841036	0.3857615
8.497514907002601e-10	-0.04835395	0.5979442	0.72489667	-0.90869665	-0.18858522	0.37061816
8.553102946371363e-10	-0.014609525	0.5603934	0.755327	-0.9056392	-0.2242299	0.3573664
8.609263242125868e-10	0.021546692	0.5199583	0.7832216	-0.9018455	-0.25582868	0.34477997
8.665967116638946e-10	0.05927378	0.47628585	0.80830425	-0.89795303	-0.28414318	0.33192235
8.723060922796911e-10	0.09758798	0.4292134	0.83025515	-0.8942382	-0.3100339	0.31819883
8.780401547208919e-10	0.1354843	0.3787169	0.84879494	-0.8906846	-0.33430868	0.3033304
8.837512971912888e-10	0.17177296	0.3252654	0.86361355	-0.8871299	-0.3574286	0.28738123
8.894431161625013e-10	0.20569311	0.2690582	0.87462646	-0.8833395	-0.37981054	0.27041832
8.951159191113342e-10	0.23657717	0.21046026	0.8817663	-0.8791183	-0.4016437	0.25254017
9.007894924774377e-10	0.26398763	0.149745	0.8850043	-0.87431765	-0.42307052	0.23374555
9.06493285585733e-10	0.28763348	0.08715675	0.8842932	-0.8688289	-0.44422448	0.21393381
9.122426922731342e-10	0.3072719	0.023163427	0.87956434	-0.8625794	-0.46519762	0.19299018
9.180260366726739e-10	0.32274416	-0.04139668	0.8708042	-0.8555245	-0.4860277	0.17087224
9.238200439453234e-10	0.3341122	-0.10552128	0.8581082	-0.847611	-0.50675416	0.14761224
9.295934189376797e-10	0.3416937	-0.16814914	0.84170055	-0.838768	-0.5273918	0.12335451
9.353668387108138e-10	0.34607798	-0.22885276	0.8217177	-0.8288209	-0.5480913	0.098109156
9.4111793241727e-10	0.3479488	-0.28683153	0.7984521	-0.8176655	-0.5687655	0.07212789
9.468271478837724e-10	0.3481225	-0.3414483	0.7722408	-0.80523956	-0.58925265	0.0456763
9.52511829426034e-10	0.34747276	-0.39252946	0.74325997	-0.7914486	-0.6094669	0.018822502
9.58191251796868e-10	0.346883	-0.439959	0.7116319	-0.776217	-0.6293024	-0.008440978
9.638583297597266e-10	0.3472397	-0.48343557	0.6776013	-0.75955987	-0.6485601	-0.036079414
9.695126344772847e-10	0.34940246	-0.5227546	0.64137465	-0.74149007	-0.66708434	-0.06418636
9.751366831283432e-10	0.3541612	-0.55762047	0.6032738	-0.72206783	-0.6846993	-0.092867434
9.807243735093581e-10	0.36220932	-0.587829	0.5635597	-0.701285	-0.70130473	-0.12235898
9.862968252675514e-10	0.37418702	-0.6132665	0.5222944	-0.678965	-0.71689254	-0.15308663
9.918769144169083e-10	0.39068806	-0.63368154	0.47950712	-0.65483296	-0.73142004	-0.18551445
9.974346093043167e-10	0.4120279	-0.6485233	0.4356416	-0.6287892	-0.74463385	-0.21978693
1.0029620939940974e-09	0.4383698	-0.6572812	0.39100093	-0.60063803	-0.7562449	-0.25612953
1.008460530343933e-09	0.46971244	-0.6593775	0.3458373	-0.5701492	-0.7658572	-0.2947935
1.0139315490642655e-09	0.5058433	-0.6541398	0.30042416	-0.53711313	-0.77292794	-0.3360101
1.0193916827382066e-09	0.54642606	-0.64077497	0.25494507	-0.5012703	-0.7767551	-0.38010734
1.0248732241803488e-09	0.5910278	-0.6182774	0.20950124	-0.46230564	-0.7763906	-0.427553
1.030398487188472e-09	0.63887	-0.58549094	0.16435312	-0.42007077	-0.77053314	-0.47874883
1.0359055364342911e-09	0.68805254	-0.5419127	0.12052409	-0.3753245	-0.75769913	-0.5332159
1.0413953634038746e-09	0.73684424	-0.48705184	0.07857493	-0.32874027	-0.73613584	-0.5908584
1.046904077062991e-09	0.7835192	-0.42028016	0.03887447	-0.28118488	-0.70354366	-0.65172553
1.0524920347324522e-09	0.82617754	-0.340741	0.0017616434	-0.23409247	-0.65675586	-0.7157777
1.058146966050562e-09	0.86198676	-0.248928	-0.03180068	-0.19076791	-0.5925856	-0.7814218
1.0637387873562696e-09	0.8876423	-0.14837855	-0.060298342	-0.15675512	-0.5100175	-0.84453744
1.069283355842781e-09	0.9013598	-0.041151453	-0.08328197	-0.13766241	-0.40794683	-0.9013278
1.0748628601308299e-09	0.9017335	0.07168321	-0.10053714	-0.1403555	-0.28565174	-0.94676185
1.0805542929400675e-09	0.8872397	0.18869962	-0.111612804	-0.17333817	-0.14522137	-0.97286344
1.0862815630982387e-09	0.8573484	0.30491617	-0.11581352	-0.2428169	0.0021145735	-0.96882445
1.091979387624106e-09	0.81316525	0.4155712	-0.11298598	-0.34768835	0.139617	-0.92586744
1.0976195696354978e-09	0.75685924	0.517208	-0.1034121	-0.4778411	0.2501129	-0.84071285
1.103236189318453e-09	0.6906194	0.6081998	-0.087471545	-0.61722636	0.3218851	-0.71641743
1.1089360693842693e-09	0.615779	0.6883696	-0.065220974	-0.7490994	0.3510069	-0.5600804
1.114656216980886e-09	0.535965	0.7555072	-0.037342608	-0.8555113	0.34104455	-0.38738486
1.120299972559295e-09	0.45552206	0.808431	-0.0050688814	-0.92691004	0.30433327	-0.21607834
1.1258192692397836e-09	0.3777996	0.8477594	0.030383091	-0.964329	0.2554506	-0.05855752
1.1313552611523905e-09	0.30299067	0.87566876	0.06911835	-0.9747044	0.20461667	0.08264926
1.137006515916422e-09	0.23175837	0.8933927	0.11124652	-0.9650111	0.1591532	0.20574418
1.1427046398804031e-09	0.16669351	0.9016304	0.15569106	-0.943059	0.124879405	0.30678895
1.1484135725764182e-09	0.10940608	0.90165263	0.20156811	-0.9168066	0.10391484	0.38449225
1.1540760854384002e-09	0.06108476	0.89495075	0.24784796	-0.8931072	0.095216475	0.43859434
1.1597787809454205e-09	0.021324925	0.8827368	0.2947471	-0.8764341	0.095171094	0.47066092
1.1655259914388399e-09	-0.009640251	0.8660239	0.3418753	-0.86978877	0.09871818	0.4815007
1.1712127798493087e-09	-0.031448796	0.8460558	0.38799962	-0.8738216	0.09971027	0.47320879
1.1768680970553502e-09	-0.044763368	0.8234991	0.4330433	-0.88664734	0.092525914	0.449593
1.182540360283879e-09	-0.05020038	0.7986393	0.47710657	-0.9049187	0.073035605	0.41507056
1.1882618186501006e-09	-0.04823063	0.7715709	0.52015483	-0.92448235	0.03935597	0.37453064
1.1940404631554638e-09	-0.03931457	0.74230266	0.5619583	-0.9412437	-0.0076424563	0.332898
1.1998729126347465e-09	-0.02401017	0.7107508	0.6022013	-0.9521669	-0.064676866	0.29428318
1.2057460323414578e-09	-0.0030218046	0.67677546	0.64050406	-0.9558631	-0.12706546	0.26136565
1.2115955621862577e-09	0.022573857	0.64050305	0.676196	-0.9526509	-0.1895022	0.23535827
1.2174256055220713e-09	0.051836077	0.60166866	0.70908684	-0.9440587	-0.24837857	0.21563862
1.22325243530455e-09	0.08388672	0.5599228	0.73904246	-0.931983	-0.30158234	0.20069233
1.2290855746977449e-09	0.117817566	0.51498467	0.76587445	-0.91819406	-0.34825855	0.18865383
1.234934980809221e-09	0.15272202	0.4666313	0.7893887	-0.90400183	-0.38863644	0.17768803
1.2407512203580463e-09	0.18735184	0.4152714	0.8092046	-0.8902731	-0.42330998	0.16643351
1.2465759587852512e-09	0.22105618	0.36067748	0.8253189	-0.8771402	-0.4537536	0.15390371
1.2524113645545248e-09	0.25302434	0.30307704	0.8375835	-0.8645169	-0.48109388	0.13970259
1.2582493358111613e-09	0.282503	0.24294436	0.84586644	-0.85221684	-0.5061785	0.1238394
1.264103098401814e-09	0.3089903	0.1806626	0.8501017	-0.8400149	-0.52965975	0.10646282
1.2699113755256045e-09	0.33185488	0.1175208	0.8502478	-0.82790375	-0.55163336	0.0879827
1.2756844214796143e-09	0.35102147	0.054111056	0.84639966	-0.81579447	-0.57228386	0.06849663
1.2814307963980309e-09	0.36657846	-0.008955516	0.83866394	-0.80362916	-0.5916676	0.04789926
1.287164115571967e-09	0.37878156	-0.071142405	0.82714766	-0.7912902	-0.60985404	0.02585163
1.2928981332484327e-09	0.38801783	-0.13194463	0.811955	-0.77852684	-0.62699354	0.0018793863
1.2985720270768973e-09	0.3947176	-0.19014215	0.7934519	-0.7650932	-0.64312494	-0.024125036
1.3041931270328607e-09	0.39954588	-0.24534495	0.7718862	-0.7504891	-0.65853727	-0.05235024
1.3097733946098603e-09	0.40321156	-0.29728147	0.7474749	-0.7341859	-0.67348135	-0.08280209
1.3153267622044643e-09	0.4064411	-0.34574795	0.7204019	-0.7157109	-0.6881157	-0.11533726
1.320865116378562e-09	0.40996188	-0.39055037	0.6908346	-0.6946995	-0.7024857	-0.14970961
1.326395311869172e-09	0.41448897	-0.43146616	0.65894634	-0.6709212	-0.71651274	-0.18561053
1.3319255862726377e-09	0.4207152	-0.46827835	0.6248872	-0.6442567	-0.7299986	-0.22276738
1.3373963409280894e-09	0.42917743	-0.5003682	0.58924687	-0.6150701	-0.7424561	-0.2605322
1.3428165433978898e-09	0.44037282	-0.52761006	0.5522102	-0.5835103	-0.75345856	-0.29887217
1.3481974537971316e-09	0.4547145	-0.5498284	0.51393	-0.5497085	-0.76248676	-0.33797222
1.3535531128657426e-09	0.47253558	-0.5667714	0.47453058	-0.51370656	-0.7689411	-0.37820885
1.3589019300338433e-09	0.49409685	-0.5780859	0.43410307	-0.47541082	-0.7721262	-0.42009187
1.3642454614744374e-09	0.51947945	-0.58327234	0.3928801	-0.43477282	-0.77120894	-0.46400872
1.3695405505375532e-09	0.54833996	-0.58180976	0.35147542	-0.39213297	-0.765285	-0.509873
1.3748002707303343e-09	0.5803941	-0.5732511	0.31009826	-0.3475383	-0.75332093	-0.5579195
1.3800417660337973e-09	0.6152222	-0.55707276	0.2689493	-0.3011969	-0.73402774	-0.60830104
1.385289551781722e-09	0.65228146	-0.53264785	0.22820629	-0.25355875	-0.7057447	-0.661103
1.3905384011197363e-09	0.6906115	-0.4994802	0.18832108	-0.20581682	-0.666612	-0.7158917
1.395712050597227e-09	0.7285051	-0.45787582	0.15029234	-0.16044006	-0.61537087	-0.7711022
1.400828913594665e-09	0.7648158	-0.40786365	0.11439139	-0.11975284	-0.55022055	-0.8256732
1.4059213306041e-09	0.79840994	-0.34942093	0.08081977	-0.0868894	-0.46919757	-0.8780383
1.4110220812094345e-09	0.8280489	-0.28258613	0.049830742	-0.06617169	-0.37061173	-0.9256252
1.4161472437023744e-09	0.8523034	-0.20777568	0.021833831	-0.06324651	-0.25415277	-0.9642758
1.421290409859436e-09	0.86966217	-0.12605226	-0.0026297634	-0.08441375	-0.12241936	-0.9880547
1.426437518679467e-09	0.87880456	-0.039005052	-0.023040025	-0.13499193	0.018049894	-0.98983645
1.4315931613799935e-09	0.8787683	0.05175552	-0.03902909	-0.21740684	0.15705119	-0.9624711
1.4366944206011618e-09	0.8691239	0.14318928	-0.05017443	-0.32734233	0.27978262	-0.90154815
1.4417507131851842e-09	0.8500116	0.23347618	-0.056443598	-0.4553364	0.37402567	-0.80679375
1.4468208777755275e-09	0.8216092	0.3217518	-0.05786614	-0.5892167	0.43200064	-0.6813576
1.4519482574606794e-09	0.78422123	0.4068942	-0.054369528	-0.7152622	0.45069498	-0.53215766
1.4571185113335124e-09	0.7388389	0.4869066	-0.0459455	-0.8203974	0.43310922	-0.3702177
1.462241072280971e-09	0.6876957	0.55909026	-0.032973908	-0.89587617	0.38859883	-0.20914717
1.467354777085954e-09	0.6321108	0.62318575	-0.01573887	-0.94139487	0.32790077	-0.056002054
1.4724823794851023e-09	0.5735163	0.67892826	0.0054748906	-0.95983195	0.2606581	0.084645525
1.4776321906367806e-09	0.51346743	0.7261446	0.030332398	-0.95594615	0.19481725	0.2102612
1.4828185247061358e-09	0.45337608	0.7649672	0.058525797	-0.93529946	0.13626091	0.32014823
1.4880502232047208e-09	0.3946046	0.795676	0.08972642	-0.903526	0.089146376	0.41439068
1.4933352600068986e-09	0.33838174	0.8187027	0.12360364	-0.8660183	0.056060754	0.4933761
1.4986234239134631e-09	0.28632158	0.83444417	0.15942684	-0.82819617	0.03824947	0.55675125
1.503894054329708e-09	0.23939162	0.8436478	0.19662313	-0.79461616	0.03490963	0.60466135
1.5091680886220381e-09	0.19794354	0.84713215	0.23493284	-0.7687443	0.043711472	0.63733447
1.514468994226839e-09	0.16221206	0.845564	0.2741552	-0.753246	0.061103366	0.6546187
1.5198192840078627e-09	0.13239223	0.8394554	0.31410795	-0.7498307	0.08229749	0.6563668
1.5252378305483315e-09	0.10867478	0.8291846	0.35459214	-0.758875	0.10147031	0.64303017
1.5306791635648588e-09	0.0913955	0.81519514	0.39493322	-0.77873546	0.1123948	0.61662155
1.5361161233587596e-09	0.08054142	0.79790515	0.43461376	-0.80579555	0.11030395	0.58083797
1.5415391134625845e-09	0.0758703	0.77763796	0.4732759	-0.8354602	0.09299989	0.5402555
1.5469596770967863e-09	0.07702365	0.7545595	0.51073706	-0.8633422	0.060970187	0.49930984
1.5523817015441924e-09	0.08359207	0.7287782	0.5467746	-0.88598835	0.016947612	0.46174645
1.5578090222117821e-09	0.095097795	0.700335	0.5811795	-0.9014034	-0.03496225	0.43010396
1.5631843978366521e-09	0.110797435	0.66958106	0.6133977	-0.9090692	-0.08964276	0.40579426
1.5685271888995183e-09	0.13003501	0.6364523	0.6433924	-0.909968	-0.1432903	0.38848358
1.5738656280166166e-09	0.15221836	0.600773	0.67115897	-0.90569335	-0.19329698	0.3770333
1.5792207705898379e-09	0.1767504	0.56237066	0.696623	-0.89800656	-0.23812458	0.36992854
1.5846145407382717e-09	0.20304084	0.52104867	0.71968246	-0.8885336	-0.27723646	0.36554527
1.5900699043106576e-09	0.23049784	0.4766019	0.7402019	-0.8785853	-0.3108468	0.36236185
1.595609878420469e-09	0.25851595	0.42884544	0.7580039	-0.86909485	-0.33964962	0.35907555
1.6011806208376417e-09	0.28609964	0.3783516	0.7726887	-0.8607341	-0.36428112	0.35471997
1.6067352868052958e-09	0.3123603	0.32581055	0.78401524	-0.8537655	-0.38563606	0.3487011
1.6122323074832896e-09	0.33658394	0.2720103	0.7918904	-0.84813637	-0.40458563	0.34080076
1.6176983340807693e-09	0.35851625	0.21714962	0.7963901	-0.843565	-0.42200464	0.33097088
1.6231551378132762e-09	0.37798828	0.16149428	0.7975565	-0.83975065	-0.43846124	0.31927457
1.6286283662278998e-09	0.3949438	0.10529222	0.79540545	-0.8364238	-0.4543138	0.30577832
1.634146166095253e-09	0.4094232	0.04878995	0.78991634	-0.8333664	-0.46979165	0.29048872
1.6396767170478174e-09	0.42143735	-0.007133687	0.78114384	-0.8304329	-0.48490566	0.27352244
1.645215435536558e-09	0.43122745	-0.0618903	0.76917726	-0.82747936	-0.4997495	0.25488445
1.6507676700850962e-09	0.43916953	-0.11501561	0.7541088	-0.82435155	-0.5144706	0.23450269
1.6563240293071484e-09	0.445715	-0.16594096	0.73608947	-0.820872	-0.5292157	0.21233454
1.6618564813209428e-09	0.45137653	-0.21399838	0.7153789	-0.8168243	-0.5441185	0.18844625
1.6673710999643685e-09	0.45674542	-0.25889274	0.69214755	-0.8119101	-0.5594139	0.16284573
1.672857007535257e-09	0.46239966	-0.30023405	0.666643	-0.8058039	-0.57525444	0.13573562
1.6783231691599473e-09	0.46891722	-0.3378201	0.6390311	-0.79816604	-0.59176445	0.10735139
1.6837765719945434e-09	0.4768406	-0.3714288	0.609479	-0.7887097	-0.60895765	0.07802709
1.6892240131658404e-09	0.48666626	-0.40081638	0.5781519	-0.7772342	-0.62674975	0.048139207
1.6946290642026019e-09	0.49872664	-0.42552274	0.54548186	-0.76375294	-0.6448398	0.018299732
1.6999900218071451e-09	0.5132969	-0.44530562	0.5117218	-0.7483353	-0.6629931	-0.01111602
1.7053202880987048e-09	0.5305899	-0.45994195	0.47702783	-0.73109806	-0.6809994	-0.039900444
1.7106222993349467e-09	0.5506792	-0.46911755	0.44162536	-0.71226275	-0.69859207	-0.06790836
1.7158504381020477e-09	0.5732887	-0.47248045	0.40607676	-0.6922897	-0.7153496	-0.09491356
1.7210253590199395e-09	0.5982441	-0.4698103	0.37051	-0.67140216	-0.7310996	-0.12122221
1.726162206643913e-09	0.6252404	-0.46082106	0.33509386	-0.64976525	-0.74568605	-0.14726421
1.7312710598062788e-09	0.6538235	-0.44520637	0.30004588	-0.627455	-0.7589686	-0.17355658
1.7363645567387857e-09	0.6834215	-0.42265642	0.26558736	-0.60441214	-0.7708236	-0.2006982
1.7414589328862022e-09	0.71334755	-0.3928624	0.2319434	-0.5804366	-0.781115	-0.22934577
1.7465395829792122e-09	0.7425984	-0.3558023	0.19956753	-0.555362	-0.7896101	-0.25998488
1.7515807756432898e-09	0.7700187	-0.31181574	0.16897835	-0.5290003	-0.79604006	-0.292956
1.756594951763868e-09	0.79463476	-0.26117605	0.14044769	-0.50091267	-0.8001408	-0.32872403
1.7615995685227211e-09	0.8154786	-0.20424691	0.11423026	-0.4705992	-0.8015303	-0.36767533
1.766553887246814e-09	0.8314291	-0.14229512	0.09085622	-0.43799168	-0.7996862	-0.40956083
1.7714550005964252e-09	0.8417383	-0.07642309	0.070585206	-0.40299433	-0.7939811	-0.45422333
1.776314411462878e-09	0.8458906	-0.0076677212	0.053573042	-0.36564144	-0.78359675	-0.5015319
1.7811444405365197e-09	0.84355617	0.062887296	0.039946876	-0.32621485	-0.7674968	-0.5513199
1.7859635799340412e-09	0.83458334	0.13422504	0.02979745	-0.28523785	-0.7443793	-0.6034484
1.7907965309891284e-09	0.8189583	0.20542327	0.023200914	-0.24354345	-0.71260893	-0.65777266
1.7956626172384624e-09	0.79682547	0.27549353	0.020244818	-0.20252137	-0.6702459	-0.7139133
1.8005542930341345e-09	0.7686595	0.3431137	0.020994771	-0.1644913	-0.6153929	-0.77082974
1.8054033648046803e-09	0.7356411	0.4063403	0.025349015	-0.13295624	-0.54725283	-0.8262389
1.8102362487769917e-09	0.6985848	0.4647773	0.033134535	-0.111417666	-0.4645556	-0.87826085
1.8150865547787613e-09	0.6582297	0.5182328	0.04422347	-0.1042627	-0.3665377	-0.924085
1.8199716278200005e-09	0.6154345	0.5664285	0.05847995	-0.11667607	-0.2540963	-0.95939726
1.824880849330337e-09	0.57131416	0.6089761	0.07566512	-0.15357745	-0.13121164	-0.9783738
1.8297931534125102e-09	0.52706254	0.64564836	0.09544295	-0.21777815	-0.0053217337	-0.97464526
1.834701272517747e-09	0.48367134	0.676551	0.11748757	-0.30840778	0.1137416	-0.9427135
1.839636776629312e-09	0.44169006	0.7021189	0.14165772	-0.42066243	0.21589026	-0.8789607
1.8446031705757186e-09	0.4018267	0.7226349	0.16770864	-0.54467577	0.29155323	-0.7834787
1.8495769669565547e-09	0.364879	0.738354	0.19524848	-0.66705024	0.33504725	-0.66157204
1.8545430908265917e-09	0.33140895	0.74965644	0.22392032	-0.7753236	0.34692913	-0.5222939
1.8595075633506413e-09	0.3016916	0.7569825	0.25350016	-0.8613316	0.33287573	-0.37551066
1.8644667753234504e-09	0.27595326	0.7607135	0.2837277	-0.9216323	0.30119452	-0.23047927
1.8694032280557094e-09	0.25436518	0.7611892	0.31427202	-0.95711625	0.260688	-0.09465921
1.8743749241665265e-09	0.2367215	0.75866425	0.34528643	-0.97189	0.2182647	0.028878784
1.879360803296687e-09	0.22312282	0.75329804	0.37644315	-0.970829	0.179629	0.13676016
1.8843531241574956e-09	0.2135248	0.7452062	0.4074972	-0.95945346	0.14836207	0.22745153
1.889348042384585e-09	0.20780955	0.7344505	0.438228	-0.9430182	0.12606424	0.30039367
1.8943499412164588e-09	0.20580867	0.72102684	0.4684636	-0.92603827	0.11258387	0.35559273
1.8993803891713077e-09	0.207342	0.70482826	0.49812728	-0.91204906	0.10631679	0.39336058
1.904411827385108e-09	0.2121861	0.6858817	0.5268483	-0.90364015	0.104517	0.4138988
1.9094300953407502e-09	0.22003512	0.6642117	0.554352	-0.9020313	0.10352479	0.4182356
1.9144538521104328e-09	0.23059535	0.6397173	0.5805525	-0.90710586	0.0993869	0.40810782
1.91946504445326e-09	0.24347293	0.6124879	0.6051777	-0.9175278	0.088525824	0.38603467
1.9244864519556398e-09	0.25834018	0.5824265	0.6281693	-0.93111706	0.068262964	0.355091
1.929537502761016e-09	0.27486005	0.54944503	0.64943403	-0.9452683	0.037204668	0.3186804
1.93462291168962e-09	0.2926314	0.513566	0.6688026	-0.95737606	-0.0044709537	0.2803384
1.9396984832571466e-09	0.31105134	0.47523576	0.6859518	-0.9652841	-0.05465387	0.2435801
1.9447701015139896e-09	0.32968885	0.43462452	0.7007871	-0.967861	-0.11063121	0.21072413