# t (s)	mx ()	my ()	mz ()	m.region1x ()	m.region1y ()	m.region1z ()
0	0	1	0	0	1	0
1.023e-12	-0.017733151	0.9997896	0.009982744	-0.07711234	0.9969524	0.011817871
2.047e-12	-0.03511541	0.99916905	0.020035686	-0.152946	0.9878992	0.025745597
4.095e-12	-0.06874012	0.9967682	0.040301166	-0.2971425	0.9530163	0.05887617
8.191e-12	-0.1312373	0.98781097	0.08132586	-0.53851306	0.83127534	0.1377823
1.3067954530525761e-11	-0.197047	0.9711676	0.13067679	-0.7283323	0.6444146	0.23292023
1.791927328887484e-11	-0.25304565	0.94972616	0.17989153	-0.8285954	0.4649276	0.3118387
2.3231026352491203e-11	-0.30362898	0.9223694	0.23347962	-0.87556994	0.30458033	0.37491223
2.9342012094389396e-11	-0.34845287	0.8878585	0.29425296	-0.8906416	0.17114937	0.4211949
3.608612181571128e-11	-0.38237166	0.84811187	0.3597063	-0.89101124	0.073701	0.44788718
4.301507854924139e-11	-0.40173382	0.8072051	0.42472807	-0.8897219	0.008871723	0.45633775
5.0053681297899814e-11	-0.40706494	0.7666806	0.4881159	-0.8916867	-0.0367395	0.45106432
5.710293000603596e-11	-0.39967018	0.72756696	0.54865175	-0.8967209	-0.07300103	0.4364215
6.420453430067438e-11	-0.3810271	0.6895238	0.60645294	-0.9029901	-0.10619199	0.41620666
7.141609296230169e-11	-0.35224423	0.65170884	0.66169447	-0.90873075	-0.13903832	0.393416
7.87750919005721e-11	-0.3142888	0.61302686	0.7142763	-0.912837	-0.17196141	0.37022704
8.628605822424663e-11	-0.2683185	0.57223344	0.76375437	-0.9149616	-0.20421451	0.34794533
9.393455952117706e-11	-0.2158277	0.5279601	0.8094854	-0.9153433	-0.23485076	0.32699862
1.0169607935264187e-10	-0.15869269	0.47883457	0.8507213	-0.91448903	-0.26327282	0.3071483
1.095727112287751e-10	-0.09890353	0.42343318	0.8868114	-0.9128896	-0.28944993	0.2877427
1.1762010519572267e-10	-0.03832029	0.36015368	0.91721386	-0.9108733	-0.31377888	0.2679506
1.2579766015936096e-10	0.020218618	0.2885336	0.94091594	-0.90864503	-0.3363944	0.24728364
1.340775733510514e-10	0.073929094	0.20875223	0.9570743	-0.9063184	-0.35739803	0.2253942
1.4254770060445932e-10	0.12086688	0.12057233	0.9650766	-0.9039323	-0.37702245	0.20177029
1.5115173495647525e-10	0.15856756	0.02594006	0.9641648	-0.9015424	-0.39503634	0.17639825
1.5981548871830405e-10	0.18550143	-0.07218689	0.9540323	-0.8991756	-0.41120243	0.1494593
1.686441082373899e-10	0.20170963	-0.17244264	0.93441707	-0.8967624	-0.42565632	0.12069453
1.774051496023004e-10	0.20778249	-0.26958737	0.9061138	-0.89428294	-0.43804997	0.091077216
1.8617148670372621e-10	0.20600818	-0.3621977	0.8695773	-0.8916168	-0.44861352	0.060705457
1.9497099746430263e-10	0.19917849	-0.44879818	0.82533854	-0.8886608	-0.45750284	0.029856432
2.0360179446066127e-10	0.19075225	-0.5264121	0.7753013	-0.8854208	-0.46470314	-0.00041468517
2.1224069880159052e-10	0.18393067	-0.5961702	0.7193114	-0.88179195	-0.47056824	-0.030485502
2.207150099283121e-10	0.18198511	-0.6565206	0.6592512	-0.8778164	-0.475187	-0.059655577
2.2905759714091785e-10	0.18755539	-0.7077947	0.5956668	-0.87345016	-0.47880355	-0.0880814
2.371858040276643e-10	0.20260027	-0.74948454	0.5298902	-0.868697	-0.48158777	-0.1156251
2.451863843665762e-10	0.22871214	-0.7816782	0.4618455	-0.86345446	-0.48373222	-0.14277777
2.5318901978664997e-10	0.26762235	-0.8036719	0.39091802	-0.8575567	-0.48535514	-0.17020251
2.6115181815577194e-10	0.32000586	-0.8132998	0.3180014	-0.8509477	-0.48645124	-0.19799179
2.6904040854842665e-10	0.3854753	-0.80794734	0.24412541	-0.843601	-0.4869301	-0.22624514
2.768768773356826e-10	0.46289435	-0.7845012	0.17002475	-0.83548963	-0.48658597	-0.25522688
2.8453967195077164e-10	0.5481708	-0.7403965	0.09804909	-0.8268217	-0.48509187	-0.28459623
2.919751290011503e-10	0.63618475	-0.6741713	0.030086763	-0.8178623	-0.48202693	-0.31413576
2.9941872194379257e-10	0.7241307	-0.5820802	-0.03437359	-0.8086384	-0.4766513	-0.34469476
3.068689451712182e-10	0.8050896	-0.46279404	-0.09328755	-0.799629	-0.46801925	-0.3760628
3.140537929296081e-10	0.8689658	-0.3229155	-0.14270234	-0.7918302	-0.4555177	-0.40661073
3.210791932153704e-10	0.9107528	-0.1657883	-0.1820083	-0.7859397	-0.4381534	-0.43598408
3.2815082743619337e-10	0.9259518	0.0069540194	-0.21077251	-0.78289604	-0.41435617	-0.46375322
3.3517665134917453e-10	0.91014403	0.18519455	-0.2271875	-0.7841269	-0.38345435	-0.48754787
3.4203873872400645e-10	0.8636178	0.35682788	-0.23065065	-0.7908717	-0.34586108	-0.50438714
3.4882880925649573e-10	0.7890181	0.5156617	-0.22161555	-0.8041884	-0.30193645	-0.51141
3.5565191063504846e-10	0.6898861	0.6567416	-0.20044112	-0.8249023	-0.25280374	-0.5049777
3.625465372337024e-10	0.571796	0.7748366	-0.16771281	-0.8528686	-0.20128503	-0.48112375
3.6940298104887543e-10	0.4443215	0.8649094	-0.12531261	-0.8857147	-0.15247935	-0.4378488
3.7615898765681376e-10	0.31656706	0.92665124	-0.075607635	-0.91958916	-0.11103979	-0.3763039
3.8290927377222135e-10	0.1934798	0.96339524	-0.01985475	-0.95079166	-0.0793108	-0.29905036
3.8978200773505963e-10	0.07827997	0.9786039	0.041385993	-0.97595	-0.057924937	-0.20979932
3.9683274293147233e-10	-0.025279608	0.97541	0.10717736	-0.99230623	-0.045906264	-0.11459867
4.0385705172816014e-10	-0.11137271	0.9580262	0.17418435	-0.99885166	-0.040492006	-0.023868613
4.1091979318671544e-10	-0.17985716	0.93066585	0.24176073	-0.9976522	-0.037707046	0.05624073
4.1810432941840547e-10	-0.23115437	0.89647645	0.30968165	-0.99204385	-0.034697242	0.12058238
4.2530274781182626e-10	-0.26498562	0.8587462	0.3761106	-0.98598677	-0.030988354	0.163676
4.3246933134230054e-10	-0.28265625	0.81974477	0.44004825	-0.98256713	-0.028960045	0.18345416
4.3961572583837915e-10	-0.2860091	0.7805846	0.50119716	-0.98286736	-0.033037048	0.18102871
4.467093451592214e-10	-0.27690628	0.74189645	0.5590001	-0.9857621	-0.047761105	0.16055807
4.537761339868931e-10	-0.2571366	0.7034383	0.6134569	-0.98861885	-0.07574972	0.12856697
4.608315099890117e-10	-0.22830336	0.6646304	0.6644727	-0.9885997	-0.11647598	0.09249855
4.679085144647967e-10	-0.19179042	0.62452036	0.71203464	-0.983886	-0.16656741	0.05904428
4.750639594930141e-10	-0.14872019	0.5818158	0.7561761	-0.9742359	-0.22111227	0.033050857
4.82159870015632e-10	-0.101502284	0.53635	0.7957326	-0.9612764	-0.27337715	0.01755572
4.891541253975192e-10	-0.052178115	0.48761487	0.83029705	-0.94744724	-0.3184663	0.012298372
4.961107919010567e-10	-0.0019965773	0.43458402	0.85999197	-0.934906	-0.35383815	0.014759062
5.031178507464275e-10	0.04803409	0.37612486	0.88484985	-0.9252142	-0.37846974	0.020970782
5.102152085494034e-10	0.09652391	0.31161383	0.9045368	-0.9191704	-0.3927787	0.025822159
5.172284430898492e-10	0.14074433	0.24285209	0.918281	-0.91645384	-0.39915806	0.02426673
5.239276116129976e-10	0.17833488	0.17304686	0.92590845	-0.9154187	-0.40192407	0.014208056
5.303294618151799e-10	0.20916565	0.103305385	0.92805886	-0.9141209	-0.40499842	-0.0031132028
5.365493520371414e-10	0.23384742	0.033545326	0.92529714	-0.91123635	-0.41053808	-0.024969306
5.42628037300716e-10	0.25274011	-0.035651468	0.9180001	-0.9063053	-0.4190637	-0.04799386
5.484313557491751e-10	0.266006	-0.1018188	0.9068629	-0.89985937	-0.4296626	-0.068602055
5.540603266342285e-10	0.274674	-0.16534477	0.8922734	-0.89268154	-0.44128108	-0.085189655
5.595859494348608e-10	0.27956963	-0.22641851	0.8744553	-0.8856213	-0.45282072	-0.097068444
5.650403088355122e-10	0.2814228	-0.284887	0.85361826	-0.8794552	-0.46318412	-0.104360245
5.704240637060547e-10	0.28097108	-0.34035465	0.8300459	-0.8747653	-0.47136354	-0.10800713
5.757270399284515e-10	0.27898818	-0.3924325	0.8040718	-0.8718364	-0.47662747	-0.10965395
5.809510928136756e-10	0.27624422	-0.44096252	0.7759717	-0.8706147	-0.4786974	-0.11130762
5.861116059144408e-10	0.27346796	-0.4859805	0.74592006	-0.87073755	-0.47780025	-0.114911504
5.912306412960435e-10	0.2713445	-0.52760106	0.7140064	-0.8715943	-0.47461012	-0.12198861
5.963317811123568e-10	0.2705315	-0.5659351	0.68026185	-0.87241983	-0.47010374	-0.13340251
6.013945609061927e-10	0.27165812	-0.60076225	0.64498854	-0.8724324	-0.46540052	-0.14910705
6.064123400513705e-10	0.27527896	-0.63199526	0.6084039	-0.8710293	-0.46147537	-0.16830328
6.11392089704809e-10	0.28188825	-0.6596168	0.5706191	-0.8679038	-0.45898697	-0.18975976
6.163422025586754e-10	0.2919287	-0.68356335	0.53171885	-0.8630672	-0.4582406	-0.21210513
6.212802708447327e-10	0.30582187	-0.7037311	0.4917015	-0.856784	-0.45921525	-0.23413864
6.261972421310392e-10	0.323859	-0.7198211	0.45077637	-0.84952164	-0.4616043	-0.25487202
6.310672422646003e-10	0.34612498	-0.7314596	0.40931225	-0.8418411	-0.46485388	-0.27372596
6.358768811868351e-10	0.37257725	-0.7383124	0.3675955	-0.8342352	-0.46827495	-0.2906899
6.40623089050463e-10	0.40307623	-0.74004465	0.32583764	-0.8270464	-0.47116405	-0.3062083
6.453155254556995e-10	0.43744427	-0.7362795	0.28414908	-0.8204334	-0.47290683	-0.32101312
6.49977183004525e-10	0.47551924	-0.7265324	0.2425332	-0.814379	-0.47303772	-0.33594137
6.546354305149693e-10	0.5171059	-0.71016043	0.20097478	-0.80873543	-0.4712541	-0.3517573
6.593118749583976e-10	0.5618545	-0.6863823	0.15954511	-0.8032814	-0.46741402	-0.36900356
6.640023350786287e-10	0.60898995	-0.65448016	0.11859053	-0.7978059	-0.46154964	-0.38783187
6.686806861579147e-10	0.6572715	-0.614026	0.07868736	-0.79218006	-0.45386064	-0.40795624
6.733196230320095e-10	0.7052208	-0.5649217	0.040436156	-0.7864033	-0.44463402	-0.42878732
6.77928828632519e-10	0.75158805	-0.5069691	0.0041409554	-0.7805797	-0.43407044	-0.44974846
6.825036462382577e-10	0.7948723	-0.44035488	-0.029762419	-0.77496445	-0.4223092	-0.47018492
6.870462359429493e-10	0.8335935	-0.36546087	-0.06089016	-0.7699003	-0.40934706	-0.4895488
6.915470579200845e-10	0.86620873	-0.28317884	-0.08879613	-0.765795	-0.3950762	-0.50735927
6.960265084968341e-10	0.89148486	-0.19414878	-0.113241084	-0.76305115	-0.37916607	-0.52334577
7.00513351187113e-10	0.9082442	-0.09900674	-0.13399497	-0.7621027	-0.36113712	-0.53725624
7.05007716555965e-10	0.91528076	0.0007879855	-0.15067595	-0.7634233	-0.34057808	-0.54864866
7.094649972935735e-10	0.9117683	0.10246648	-0.16285524	-0.76742494	-0.31741256	-0.5568595
7.13920091594704e-10	0.8973359	0.20488009	-0.17045376	-0.77450716	-0.29139546	-0.56122303
7.18345334368294e-10	0.872121	0.30541196	-0.17332453	-0.78490365	-0.26291916	-0.560802
7.228018783263712e-10	0.8361234	0.40347433	-0.17144257	-0.7989173	-0.23215449	-0.5545064
7.273036854182256e-10	0.7897387	0.49738982	-0.1647082	-0.81660485	-0.19990754	-0.54106987
7.318048392310466e-10	0.7344628	0.58442247	-0.15324132	-0.8374436	-0.16776612	-0.5196124
7.362624710964596e-10	0.6724116	0.6624655	-0.13742791	-0.860456	-0.1374505	-0.4899307
7.406650732370911e-10	0.6056091	0.73059154	-0.11772961	-0.88448983	-0.11032182	-0.452362
7.450802960392291e-10	0.5348303	0.789352	-0.09423343	-0.9086827	-0.087009996	-0.40696603
7.495433394927809e-10	0.46120736	0.8387487	-0.06705709	-0.93192816	-0.06812349	-0.35425264
7.540338903253433e-10	0.38677204	0.8783753	-0.036658462	-0.95285445	-0.054114435	-0.29574132
7.585430179920905e-10	0.31330767	0.90838087	-0.003494884	-0.97036785	-0.04485321	-0.23319605
7.629949601745099e-10	0.24345566	0.92900985	0.031405255	-0.9835565	-0.03980116	-0.16952117
7.674210387332477e-10	0.17782804	0.9414477	0.06780977	-0.9923488	-0.037907083	-0.10607978
7.718694322339924e-10	0.1166522	0.946743	0.10571639	-0.99693644	-0.03808805	-0.043853313
7.76357270296095e-10	0.06052115	0.9457427	0.1449239	-0.99768245	-0.039273493	0.015791858
7.808699206030625e-10	0.010253725	0.9393128	0.18497764	-0.995233	-0.04042557	0.071141556
7.853870797150395e-10	-0.033551134	0.92839646	0.2253897	-0.99051845	-0.04066816	0.12059906
7.899116104092324e-10	-0.07076225	0.9138652	0.26590833	-0.98459816	-0.03942504	0.16303423
7.944492070500015e-10	-0.10139859	0.8964759	0.3063396	-0.97853994	-0.0365048	0.19749418
7.989839539291517e-10	-0.12546828	0.87696344	0.34632808	-0.9733403	-0.03219241	0.22309095
8.035587220661513e-10	-0.14335252	0.85568404	0.38606024	-0.9697299	-0.027198222	0.23948798
8.08164158997831e-10	-0.15517448	0.83309275	0.42527774	-0.9682163	-0.022736793	0.24632806
8.127802563219317e-10	-0.1611604	0.8095986	0.46365878	-0.9689139	-0.020363625	0.24382043
8.174004910046463e-10	-0.161668	0.7854439	0.5010227	-0.9715104	-0.021688126	0.23284094
8.220353354394668e-10	-0.1570811	0.7606786	0.53734064	-0.97535205	-0.028112257	0.21478026
8.267062628743402e-10	-0.14772825	0.73519796	0.57266265	-0.9795724	-0.040638007	0.19136967
8.314341141079148e-10	-0.1338788	0.70881265	0.6070117	-0.9832238	-0.059708364	0.1645695
8.362291602916848e-10	-0.11580469	0.6813124	0.6403079	-0.98542404	-0.08506778	0.13646701
8.410545306657686e-10	-0.09401656	0.6527011	0.6721444	-0.98552525	-0.115496755	0.10927437
8.458926561048934e-10	-0.06905628	0.6228469	0.7022747	-0.98327935	-0.14932345	0.08466724
8.5074728085958e-10	-0.041403316	0.5914723	0.7305934	-0.97879595	-0.18483144	0.06366069
8.556240519822448e-10	-0.011540245	0.5582775	0.7569952	-0.97244763	-0.22038537	0.04674141
8.605290899078745e-10	0.02003602	0.52296305	0.7813643	-0.9647682	-0.25455981	0.033936594
8.654670371689401e-10	0.05279705	0.48526064	0.803565	-0.95635676	-0.2862058	0.024890304
8.704345637758893e-10	0.08613699	0.44500637	0.8234214	-0.94780266	-0.31446436	0.01893984
8.753952458077787e-10	0.11921358	0.4023983	0.840659	-0.93965226	-0.33870712	0.015200505
8.803640201273613e-10	0.15154025	0.35730386	0.8552228	-0.93221056	-0.35897762	0.01261688
8.853584586900415e-10	0.18266211	0.30962023	0.86704004	-0.9256207	-0.37560442	0.010160259
8.903844532754025e-10	0.2120704	0.25942057	0.8759906	-0.919891	-0.38911107	0.006922343
8.954272188557667e-10	0.23918875	0.20707822	0.8819369	-0.91491437	-0.40017673	0.0022375379
9.004670855259081e-10	0.26352155	0.15312532	0.88479596	-0.91047776	-0.4096088	-0.0041883634
9.054987850272959e-10	0.2847721	0.09802406	0.8845528	-0.90630627	-0.41823003	-0.012221077
9.105382742201347e-10	0.30283785	0.042049937	0.8812122	-0.90213525	-0.42672095	-0.021343034
9.156069273465446e-10	0.31770667	-0.014556488	0.87475955	-0.8977934	-0.43546927	-0.030746315
9.206430181730214e-10	0.3292682	-0.07061014	0.8653371	-0.8933356	-0.4443519	-0.03936907
9.25649838042433e-10	0.33777046	-0.12566951	0.85307777	-0.88892615	-0.45303142	-0.046448864
9.306400065909264e-10	0.34356093	-0.17943028	0.83809304	-0.88483536	-0.4610031	-0.051599286
9.3562647047104e-10	0.3470469	-0.23162505	0.8204782	-0.8813678	-0.4677389	-0.05485735
9.406139910354967e-10	0.3486874	-0.28193682	0.800346	-0.8787796	-0.47280717	-0.056649342
9.455975361715595e-10	0.34899694	-0.32999817	0.77785224	-0.8772068	-0.47595358	-0.05770237
9.505748887163212e-10	0.34853762	-0.3755262	0.7531489	-0.8766313	-0.47712904	-0.058921725
9.555499611513571e-10	0.34789613	-0.41833964	0.72635615	-0.87690204	-0.4764614	-0.061271206
9.605346967012979e-10	0.34766987	-0.4583478	0.6975367	-0.8777704	-0.4742319	-0.06568302
9.655391403619664e-10	0.34846494	-0.4954418	0.66674554	-0.87890756	-0.47088182	-0.07295801
9.705698136487372e-10	0.3508918	-0.5294736	0.63404727	-0.8799089	-0.46701357	-0.08363115
9.75569559785865e-10	0.355485	-0.5599045	0.599945	-0.88032037	-0.46336624	-0.09764542
9.805354555462615e-10	0.36271527	-0.5866102	0.5646187	-0.87974995	-0.46056223	-0.11455262
9.854773057783719e-10	0.37300718	-0.60950184	0.52815455	-0.8779334	-0.45900506	-0.13361451
9.904059208164547e-10	0.38673767	-0.6284239	0.49062216	-0.87477887	-0.45883948	-0.15395777
9.95336934417187e-10	0.4042515	-0.643144	0.45204854	-0.87036175	-0.4599815	-0.17476416
1.0002617988754574e-09	0.42573503	-0.6532692	0.41265422	-0.86491275	-0.46217763	-0.19527213
1.0051835178608164e-09	0.45130235	-0.658373	0.372584	-0.8587266	-0.46507683	-0.21499917
1.0101144163052894e-09	0.481009	-0.65793896	0.33192155	-0.8520958	-0.46828255	-0.23375112
1.0150364486241457e-09	0.5145805	-0.6513824	0.29102522	-0.845325	-0.4713471	-0.25147143
1.0199508919947562e-09	0.55166763	-0.6380989	0.25012472	-0.8386376	-0.4738345	-0.26841477
1.0248822762721721e-09	0.5919306	-0.6173432	0.20929222	-0.8321462	-0.47536254	-0.28509063
1.0298070201188308e-09	0.6344368	-0.5885475	0.16904205	-0.82592756	-0.47562957	-0.30192727
1.0346481439494813e-09	0.67751384	-0.5518215	0.13034128	-0.82001877	-0.47450608	-0.31910318
1.0394172152918366e-09	0.7200886	-0.5070576	0.093435414	-0.81428957	-0.47199345	-0.33690625
1.0441486641657498e-09	0.7611995	-0.45398694	0.05842041	-0.8086013	-0.46808895	-0.3555087
1.0488627122072042e-09	0.7996514	-0.39251843	0.025544815	-0.8029059	-0.46273938	-0.37487543
1.053563697458615e-09	0.83402956	-0.32293275	-0.004800994	-0.7972715	-0.4558399	-0.3948061
1.0582456229614698e-09	0.86284137	-0.2459604	-0.032162737	-0.79186475	-0.44725662	-0.41500005
1.0629029878786416e-09	0.88470954	-0.16267014	-0.056124054	-0.78690696	-0.4368384	-0.43512222
1.0675453405923933e-09	0.89850056	-0.07415499	-0.07638323	-0.78263885	-0.42438394	-0.45485747
1.0722017602409359e-09	0.903265	0.018669024	-0.09271957	-0.7793354	-0.4095866	-0.47389472
1.0768755166404998e-09	0.8981801	0.11419156	-0.10481312	-0.7773721	-0.3921575	-0.4917006
1.081575483176568e-09	0.88273716	0.21072872	-0.112407014	-0.7772126	-0.37177116	-0.5076289
1.0862534144410073e-09	0.85714275	0.30534187	-0.11528423	-0.7793626	-0.34843898	-0.5207298
1.0908937363482096e-09	0.8221557	0.39588183	-0.113484055	-0.784269	-0.3222444	-0.5301112
1.0954695611332693e-09	0.7791301	0.4802838	-0.10721861	-0.7922312	-0.29359847	-0.5348409
1.099999992720351e-09	0.72930497	0.5577053	-0.09675125	-0.8034465	-0.262896	-0.5340389
1.1045349491220595e-09	0.67355454	0.6280085	-0.08222419	-0.81807333	-0.23052585	-0.5266905
1.109101589026754e-09	0.6129563	0.6907581	-0.063766666	-0.8360633	-0.19725999	-0.51166534
1.1136894696951831e-09	0.54913485	0.7452159	-0.041673586	-0.85694116	-0.16439395	-0.4880815
1.118266833442316e-09	0.48406953	0.79082996	-0.01644192	-0.8797481	-0.13350683	-0.4556909
1.1228280688920803e-09	0.41930613	0.8277512	0.0114936475	-0.9033265	-0.10591152	-0.41476256
1.1274056748120271e-09	0.3557078	0.85659987	0.041946262	-0.92653775	-0.082473814	-0.3657496
1.1320339939062796e-09	0.29401174	0.87795615	0.07480471	-0.94817555	-0.063794896	-0.30944622
1.1366811742593435e-09	0.23571321	0.892179	0.10950054	-0.966807	-0.050299965	-0.24791674
1.1413312689784308e-09	0.18185711	0.89993364	0.14555344	-0.9814183	-0.041725494	-0.18347754
1.1459822376531679e-09	0.13309714	0.9020071	0.18260072	-0.9915088	-0.037274014	-0.11839991
1.1506346513433347e-09	0.089873455	0.89918584	0.2203291	-0.99706995	-0.03582231	-0.054851145
1.1553009200820876e-09	0.052378066	0.8921914	0.2585543	-0.9985435	-0.036111325	0.005343234
1.1599982467677028e-09	0.020695824	0.88163453	0.29716238	-0.9967019	-0.03693325	0.06061321
1.1647266031496741e-09	-0.005037683	0.8680667	0.33591956	-0.9925671	-0.037282117	0.1093833
1.1694304894439926e-09	-0.024597263	0.8521622	0.37416035	-0.9873649	-0.036531437	0.14989519
1.1741316442569384e-09	-0.038299706	0.8342841	0.41187525	-0.98220754	-0.034566224	0.18152007
1.17884641948018e-09	-0.04641494	0.8146771	0.44902152	-0.9780241	-0.031799868	0.20374548
1.183581683826275e-09	-0.049192965	0.79351187	0.48548666	-0.97548044	-0.029168714	0.21625368
1.1883408831808892e-09	-0.046906807	0.77088016	0.5211358	-0.97488993	-0.028039927	0.21910538
1.1931291157474138e-09	-0.039856587	0.7467829	0.5558486	-0.9761622	-0.030018885	0.21286586
1.1979574326604682e-09	-0.028348006	0.72111344	0.58954185	-0.9788153	-0.03669129	0.19863972
1.2028394983961253e-09	-0.01268295	0.6936793	0.622134	-0.9820528	-0.049346134	0.17803428
1.2077270063502838e-09	0.0065639196	0.6646018	0.6531363	-0.9848684	-0.06843751	0.15339117
1.2126090673482744e-09	0.028833743	0.6337976	0.68233895	-0.9863458	-0.09362366	0.12710267
1.2174934613414132e-09	0.05362307	0.6010616	0.70964754	-0.985831	-0.123946704	0.10127845
1.2223895564729472e-09	0.08043476	0.5661727	0.73496395	-0.98300594	-0.15800044	0.07763735
1.2273034572611283e-09	0.10874717	0.52894074	0.7581601	-0.977902	-0.19411895	0.05744417
1.232236716317507e-09	0.13800085	0.48923922	0.7790827	-0.9708588	-0.23056155	0.04147713
1.2371904351873245e-09	0.16762598	0.44699433	0.7975817	-0.96243536	-0.2657069	0.030009873
1.24216841228884e-09	0.1970722	0.4021707	0.813523	-0.95329654	-0.29819745	0.022836616
1.2471750955574356e-09	0.22580838	0.35479477	0.82677907	-0.94411135	-0.32700452	0.019331016
1.2521957669741208e-09	0.2532302	0.3051606	0.83719313	-0.9354967	-0.35139167	0.018513273
1.2572254138200773e-09	0.27885523	0.25356498	0.84467083	-0.9278898	-0.3711267	0.019128397
1.2622661830846059e-09	0.30231714	0.20030744	0.8491533	-0.9215212	-0.38641417	0.01979969
1.2673280537993576e-09	0.32336676	0.14566144	0.8505963	-0.91641515	-0.397825	0.019162206
1.2724194246187926e-09	0.34182906	0.089961655	0.8489541	-0.91241115	-0.40621975	0.016001046
1.2775137638207554e-09	0.3575205	0.033963982	0.84422594	-0.9091886	-0.41266933	0.009495816
1.282604961070901e-09	0.37047356	-0.021781703	0.8364613	-0.90626454	-0.41841084	-0.000566924
1.2876872041860007e-09	0.38084245	-0.07673814	0.8257456	-0.9031142	-0.4245621	-0.013675159
1.2927330995491002e-09	0.38886052	-0.13017082	0.8122622	-0.899331	-0.4318325	-0.02859971
1.2977565028226765e-09	0.39492655	-0.1818351	0.79612666	-0.8947141	-0.4404478	-0.043871082
1.3027631711417113e-09	0.39947367	-0.23143788	0.77746916	-0.8893535	-0.45011628	-0.058025535
1.3077609161023109e-09	0.40297672	-0.27874213	0.75640833	-0.88359064	-0.4602008	-0.06993657
1.312757161909752e-09	0.40593848	-0.32353488	0.7330561	-0.8779171	-0.46993256	-0.07898393
1.3177599725453887e-09	0.40888196	-0.36562732	0.70751214	-0.8728384	-0.4786031	-0.08509047
1.3227736493741362e-09	0.41233957	-0.40480894	0.6798866	-0.86875695	-0.4856611	-0.0886534
1.3278025716499807e-09	0.41684577	-0.44087255	0.65028393	-0.86590064	-0.49072996	-0.090450644
1.3328236243836982e-09	0.42288882	-0.47343156	0.61897993	-0.86432874	-0.49355677	-0.091544315
1.3378379598375992e-09	0.43093485	-0.50228626	0.5861179	-0.8639393	-0.49405283	-0.09320268
1.3428450640008153e-09	0.441397	-0.52720577	0.55185235	-0.8645178	-0.49230576	-0.09676881
1.3478034431244664e-09	0.45450372	-0.54777706	0.51663816	-0.8657079	-0.4887017	-0.103408396
1.35272255999774e-09	0.47048432	-0.5638416	0.48059493	-0.86701965	-0.4838879	-0.1139269
1.3576172550672977e-09	0.4895183	-0.5751853	0.44379905	-0.8678762	-0.47864464	-0.12861773
1.3624992160366049e-09	0.5117048	-0.5814988	0.40635297	-0.86770856	-0.47371805	-0.1472165
1.3673751026937982e-09	0.53703046	-0.5823896	0.3684101	-0.8660804	-0.4696613	-0.16899058
1.372252067867266e-09	0.5653719	-0.5774039	0.3301406	-0.86277664	-0.46675485	-0.19295645
1.3771441918519225e-09	0.59652066	-0.5660139	0.2916858	-0.8578093	-0.4650336	-0.2181221
1.3820775947942824e-09	0.6302134	-0.5475584	0.25312698	-0.851353	-0.46437255	-0.24365588
1.387026273356236e-09	0.66564906	-0.521555	0.21499407	-0.8437707	-0.46454644	-0.26862365
1.3918928167219482e-09	0.70127535	-0.48829186	0.1783717	-0.8356297	-0.4652034	-0.29200056
1.3967100688879164e-09	0.7363435	-0.4476056	0.14333911	-0.82729596	-0.465904	-0.3137238
1.4014965475207136e-09	0.7699237	-0.3994451	0.11010688	-0.81911236	-0.46613663	-0.33392906
1.4062614944992168e-09	0.800949	-0.3439508	0.078970864	-0.8113766	-0.46535295	-0.35295507
1.4110103327400468e-09	0.8282901	-0.28147984	0.05026191	-0.8042995	-0.46304145	-0.3712932
1.4157474295873561e-09	0.8508219	-0.21261272	0.024316626	-0.797977	-0.45879003	-0.38946557
1.420429815178305e-09	0.86735	-0.13892148	0.0016738113	-0.7924572	-0.4523774	-0.40769184
1.4250712433107493e-09	0.87716264	-0.061382256	-0.017500537	-0.787671	-0.44364184	-0.42617455
1.4296898785155865e-09	0.87969995	0.019015942	-0.033068955	-0.7835989	-0.43242902	-0.4448808
1.434289390193606e-09	0.87457204	0.100958325	-0.044864237	-0.78034335	-0.41861156	-0.46350384
1.438864877582053e-09	0.86167467	0.18292347	-0.052758798	-0.7781234	-0.40211487	-0.48154563
1.4434117597245266e-09	0.84122247	0.26341128	-0.056709334	-0.7772279	-0.38293147	-0.4984089
1.4479368844662557e-09	0.81365395	0.34121096	-0.056752548	-0.7779696	-0.36108628	-0.5134649
1.4524540006435981e-09	0.7795503	0.4153483	-0.05295996	-0.7806697	-0.3366344	-0.52602375
1.456969762629636e-09	0.73969144	0.48487052	-0.04543505	-0.7856469	-0.30972898	-0.5352763
1.461498282532364e-09	0.6949152	0.5490986	-0.03429666	-0.7932256	-0.28055465	-0.54032934
1.4660387533519795e-09	0.6462972	0.6073177	-0.019725649	-0.80368036	-0.24950245	-0.54018867
1.470579431276751e-09	0.59511644	0.6589298	-0.001994674	-0.81715053	-0.21721455	-0.5338779
1.4751138944585385e-09	0.54261744	0.703683	0.01858912	-0.8335904	-0.18450387	-0.5205348
1.4796579756919016e-09	0.48973665	0.7417426	0.041808236	-0.85278946	-0.15222244	-0.49937573
1.4842326155118864e-09	0.4372727	0.7733888	0.06750112	-0.87429315	-0.121366285	-0.46972454
1.488820270823685e-09	0.3863743	0.7987421	0.09529694	-0.8971561	-0.093288794	-0.4314764
1.4934259422113877e-09	0.33781052	0.81820476	0.12494379	-0.92025834	-0.06912567	-0.3848877
1.498036623483352e-09	0.29240212	0.8321753	0.15607616	-0.9422341	-0.049855	-0.33095038
1.5026436083823654e-09	0.25075844	0.8411435	0.1883528	-0.96176314	-0.035971455	-0.2711876
1.5072063770677457e-09	0.21357231	0.84560645	0.2212068	-0.97764665	-0.027450161	-0.20799138
1.5117786071750543e-09	0.18063131	0.8461321	0.25476447	-0.9893783	-0.02355342	-0.14263621
1.5163817774426447e-09	0.152017	0.8430944	0.2889529	-0.9966332	-0.023306154	-0.07681033
1.5210000000828382e-09	0.12799683	0.8368277	0.32343146	-0.9994308	-0.025450435	-0.012671802
1.5256112103407691e-09	0.10873014	0.827677	0.35781989	-0.9982636	-0.028575078	0.04773388
1.530222037007463e-09	0.09415095	0.8159069	0.391964	-0.9939811	-0.031383496	0.102996096
1.5348645755265633e-09	0.084124126	0.80163205	0.42590493	-0.9875972	-0.032870334	0.15214017
1.5395756668993337e-09	0.0785846	0.78484255	0.45970947	-0.9802128	-0.032408632	0.19419804
1.544339771473611e-09	0.07753608	0.765646	0.49305812	-0.9730575	-0.029902805	0.22775295
1.5491335824725318e-09	0.08084932	0.7441803	0.52558976	-0.96728045	-0.025958285	0.25167695
1.5538998350840874e-09	0.08818345	0.7207641	0.55675066	-0.9637486	-0.021892287	0.26532128
1.558652325524496e-09	0.09915759	0.6953872	0.5864933	-0.96279323	-0.019415937	0.26900205
1.5634086527104732e-09	0.11340873	0.66796756	0.6147882	-0.9642881	-0.020411152	0.26351282
1.5681787380470822e-09	0.13055237	0.6384258	0.6415492	-0.96766436	-0.026627768	0.25017858
1.5729683250357076e-09	0.1501702	0.6066859	0.66665965	-0.971992	-0.03933761	0.23084936
1.5777822158816415e-09	0.17181514	0.57267106	0.6899921	-0.97615314	-0.05906619	0.20773444
1.5826121460431665e-09	0.19495332	0.53641003	0.7113587	-0.9790596	-0.0854048	0.18320963
1.5874653185424945e-09	0.2191041	0.49784487	0.7306485	-0.97988963	-0.11721836	0.15939046
1.5923554827744982e-09	0.24381822	0.45688474	0.74776495	-0.97819865	-0.15288234	0.13796493
1.5972943841523599e-09	0.26863903	0.4134804	0.76258755	-0.9739481	-0.19049014	0.120138854
1.602270245941065e-09	0.2930032	0.36784083	0.7749292	-0.9675014	-0.22792624	0.106645755
1.607265259045226e-09	0.31635863	0.32031298	0.78463167	-0.95952976	-0.26324868	0.09762612
1.6122860110680906e-09	0.3383302	0.27108395	0.7916197	-0.9508035	-0.2950955	0.09264274
1.6173413357595912e-09	0.35861552	0.22036842	0.7958242	-0.94207597	-0.3225811	0.09086326
1.6224253984723289e-09	0.37693208	0.16857854	0.7971769	-0.93400717	-0.34524107	0.091150835
1.627525801258817e-09	0.3930832	0.11624124	0.79564774	-0.9270687	-0.36311114	0.09215671
1.6326433905984413e-09	0.40702972	0.06377772	0.7912421	-0.92147464	-0.37673753	0.09246985
1.6377780788741239e-09	0.41883296	0.011631561	0.78398615	-0.9172051	-0.38700825	0.09076763
1.6429378633520476e-09	0.42866898	-0.039833695	0.77390903	-0.91401696	-0.3950632	0.085976385
1.6481340581309119e-09	0.43680137	-0.090288356	0.76103294	-0.9114857	-0.4021449	0.07744245
1.6533554244665487e-09	0.4435415	-0.13919573	0.7454475	-0.90907663	-0.4093886	0.06515394
1.658584328277705e-09	0.44927877	-0.18600148	0.7273034	-0.90625244	-0.41761506	0.049815565
1.6638129970768655e-09	0.45447296	-0.23029284	0.7067555	-0.9026166	-0.42716736	0.032654013
1.6690333082638567e-09	0.4596117	-0.2717002	0.68398184	-0.8980334	-0.43787372	0.015127381
1.6742503264090416e-09	0.46520028	-0.30999073	0.6591154	-0.89263904	-0.4492154	-0.0014515575
1.679476820950426e-09	0.47174418	-0.3449842	0.6322459	-0.8867777	-0.46053505	-0.01612148
1.6847255374843566e-09	0.47973686	-0.37646836	0.603454	-0.8808961	-0.47120112	-0.028342538
1.689988373167266e-09	0.4896114	-0.4040802	0.57293874	-0.8754518	-0.48067066	-0.03797755
1.695261722507536e-09	0.5017487	-0.4274764	0.540893	-0.8707948	-0.48856977	-0.04534055
1.7005014160902336e-09	0.5163286	-0.44616762	0.5077867	-0.86715937	-0.4946164	-0.051081896
1.7056953699581507e-09	0.5334607	-0.45986557	0.47392327	-0.86459833	-0.49871832	-0.056174513
1.7108622042584574e-09	0.5532411	-0.46834305	0.43941092	-0.8630296	-0.50093144	-0.061725195
1.7160157937798714e-09	0.5756598	-0.4712774	0.40438753	-0.8622683	-0.5014428	-0.068786144
1.721166244244981e-09	0.6005801	-0.46827352	0.3690269	-0.86201787	-0.50059366	-0.07819873
1.7263247284003597e-09	0.62774014	-0.4588824	0.33351594	-0.8618851	-0.49884522	-0.090466276
1.7314635093054556e-09	0.656507	-0.44276384	0.2983359	-0.8614439	-0.4967116	-0.10556837
1.7365618032160985e-09	0.68609965	-0.41974857	0.2639398	-0.8603331	-0.49464348	-0.123071805
1.741622015778255e-09	0.71573025	-0.3897317	0.23063487	-0.85832506	-0.49294597	-0.14235786
1.7465886520812272e-09	0.74418396	-0.35320106	0.19909842	-0.8553851	-0.49178457	-0.1624879
1.7514819519659656e-09	0.7706635	-0.31040394	0.1694904	-0.8515878	-0.49115497	-0.18287475
1.7563285902230573e-09	0.79439473	-0.26157844	0.14193884	-0.8470774	-0.49093658	-0.2031273
1.7611448229235757e-09	0.8145472	-0.20712881	0.11664477	-0.84204733	-0.49090385	-0.22301039
1.7659435975068943e-09	0.83030546	-0.1476101	0.093831584	-0.83670884	-0.49073702	-0.24248905
1.7707356893207936e-09	0.84091425	-0.08373588	0.07373208	-0.8312604	-0.49005154	-0.26172477
1.7755285357745988e-09	0.8457231	-0.016400095	0.056583498	-0.82585794	-0.48844224	-0.28102672