# t (s)	mx ()	my ()	mz ()	m.region1x ()	m.region1y ()	m.region1z ()
0	0	1	0	0	1	0
1.023e-12	-0.01773067	0.99978966	0.009982715	-0.0365099	0.9992764	0.010667369
2.047e-12	-0.035110496	0.99916965	0.020035632	-0.07255581	0.99712014	0.022072379
4.095e-12	-0.06873063	0.99677026	0.0403011	-0.14270234	0.98865354	0.04690808
8.191e-12	-0.13122058	0.9878186	0.081326246	-0.2724967	0.956586	0.10338743
1.565486254916585e-11	-0.22806054	0.9602622	0.15693408	-0.46120787	0.8595554	0.22011459
2.3183002770349852e-11	-0.30319652	0.9226571	0.2330089	-0.58319235	0.73807585	0.33929762
3.077556558586953e-11	-0.3569577	0.87952185	0.30834436	-0.6473335	0.6174754	0.44683826
3.851219339718238e-11	-0.3908206	0.83376	0.38277903	-0.6715433	0.51071274	0.5368178
4.645204857028527e-11	-0.4059949	0.7872797	0.4560727	-0.67274	0.42130435	0.60818565
5.4568920630017676e-11	-0.40364152	0.7414898	0.5272921	-0.66377413	0.34720343	0.6624328
6.270879260833854e-11	-0.38575104	0.69748056	0.5946101	-0.6526753	0.2839414	0.7023897
7.089132303754425e-11	-0.35457307	0.6544856	0.65786016	-0.6426338	0.22533001	0.73225677
7.918589745139952e-11	-0.31187153	0.61087435	0.71716493	-0.63391304	0.16654162	0.75522274
8.767851251387959e-11	-0.25904715	0.5644477	0.77251554	-0.6256635	0.10440424	0.77303255
9.642451292716824e-11	-0.19772679	0.51274496	0.82338136	-0.61707985	0.037254952	0.78597045
1.0542930909500264e-10	-0.13033667	0.45334777	0.8686608	-0.60798335	-0.03539393	0.79310477
1.1465001983404204e-10	-0.060351774	0.3843294	0.90686953	-0.59891856	-0.1131622	0.79270524
1.2412675872078318e-10	0.008745398	0.30374563	0.9367681	-0.59073734	-0.19600388	0.78260684
1.3363638491271703e-10	0.071366616	0.21313526	0.9564982	-0.5844039	-0.2810365	0.7611302
1.4282756353624734e-10	0.12237719	0.11750287	0.9652651	-0.58024967	-0.3635437	0.72865903
1.519678514124499e-10	0.16169427	0.016697835	0.9636696	-0.5775888	-0.44407508	0.68480384
1.6124282690074217e-10	0.18897247	-0.088549845	0.95154446	-0.57532835	-0.52223706	0.6292876
1.7027162737958694e-10	0.20362732	-0.19085799	0.92985475	-0.5721078	-0.59312165	0.5662198
1.792740569670734e-10	0.2080486	-0.28991717	0.8990246	-0.5663155	-0.65740323	0.49677154
1.8843948846245436e-10	0.20466226	-0.38533026	0.85889006	-0.5562798	-0.7155794	0.42207548
1.9778568026581535e-10	0.19649982	-0.47510254	0.809714	-0.54055834	-0.767254	0.3446061
2.0679664718218713e-10	0.18789479	-0.5533206	0.7552387	-0.5194707	-0.8101777	0.27092305
2.1546163503714193e-10	0.18249258	-0.6202341	0.697028	-0.49340627	-0.84573567	0.20231842
2.2387992119174383e-10	0.18309471	-0.6771151	0.6355852	-0.46248016	-0.87560856	0.13818628
2.3214869974183948e-10	0.1920548	-0.72482216	0.5710213	-0.4264386	-0.9010426	0.07728968
2.402158750152107e-10	0.21109912	-0.76294893	0.50441444	-0.38530493	-0.9224472	0.019058917
2.4819966433772357e-10	0.24183004	-0.79143465	0.43536603	-0.33788443	-0.9402734	-0.038529422
2.5621020952782074e-10	0.28591752	-0.80908227	0.3633947	-0.28233176	-0.9542434	-0.09750222
2.6412598091067067e-10	0.34320626	-0.813375	0.29017937	-0.21809742	-0.9629431	-0.15813103
2.720296642058207e-10	0.413758	-0.8015114	0.21574901	-0.14316481	-0.9643978	-0.22204061
2.7986426142852e-10	0.4953429	-0.7701644	0.14167838	-0.056981146	-0.9554025	-0.28956074
2.8739710622468483e-10	0.5818272	-0.71798617	0.071451984	0.03761	-0.93253016	-0.3589951
2.948339537877722e-10	0.6705595	-0.64207333	0.0046106083	0.14168769	-0.89051753	-0.43222684
3.022704275930372e-10	0.7566546	-0.5396962	-0.05791578	0.25395504	-0.8217869	-0.50999683
3.096897245748868e-10	0.8325802	-0.41065875	-0.11390103	0.36867726	-0.7174342	-0.59100693
3.167737574846967e-10	0.88829446	-0.26413324	-0.15932669	0.47136134	-0.5750389	-0.6686295
3.238093711880975e-10	0.9204713	-0.10026494	-0.19474515	0.5518831	-0.38443616	-0.7399558
3.308868158710446e-10	0.92396414	0.07635438	-0.2189363	0.5898452	-0.141094	-0.7950154
3.3785004503713614e-10	0.8959595	0.25324863	-0.23030968	0.5600909	0.13839172	-0.8166895
3.446668122357266e-10	0.8381654	0.4205583	-0.22887751	0.44758025	0.42204112	-0.78824735
3.514689495790159e-10	0.7533364	0.5734143	-0.21506327	0.25376835	0.6704321	-0.69701326
3.5832022724586193e-10	0.64588356	0.7062604	-0.1892712	0.0064451327	0.8401735	-0.5419455
3.652177097429281e-10	0.52270067	0.81394345	-0.15245117	-0.24323532	0.9075816	-0.34172413
3.720315769425733e-10	0.39413	0.8927365	-0.10694936	-0.44427073	0.885903	-0.13241225
3.7877070348615506e-10	0.2675892	0.94429076	-0.054757144	-0.5788405	0.8133709	0.056726195
3.855567816519511e-10	0.14702736	0.97221816	0.003242414	-0.6558496	0.72463644	0.21140447
3.9250100254116026e-10	0.035701126	0.9797883	0.06647707	-0.6942408	0.641403	0.32650056
3.995416925719107e-10	-0.061375145	0.9704324	0.13294245	-0.71411955	0.57359904	0.40124243
4.065665493754815e-10	-0.14063689	0.9486607	0.20019582	-0.7317054	0.5196358	0.44107163
4.1368007358361655e-10	-0.20257285	0.91817516	0.26807678	-0.7558542	0.47025952	0.4554897
4.208750745616257e-10	-0.24704051	0.88220507	0.33557355	-0.78776973	0.4167843	0.4534623
4.280651949901759e-10	-0.27444315	0.84369636	0.40115076	-0.8231319	0.35441893	0.44358876
4.352240851971957e-10	-0.28636566	0.8044832	0.4640666	-0.8561059	0.28278533	0.4325127
4.4234609024429263e-10	-0.28468153	0.7654731	0.52392834	-0.8821387	0.20494281	0.42403024
4.4942754882722365e-10	-0.27126026	0.7269034	0.5804597	-0.8991002	0.1253294	0.41940004
4.5648651508316404e-10	-0.24781618	0.68840384	0.63359725	-0.90711164	0.047706813	0.41816938
4.635453136761352e-10	-0.21586977	0.64923656	0.6832871	-0.90758306	-0.025504546	0.4190941
4.706449073925052e-10	-0.17670667	0.6083182	0.7295356	-0.9023385	-0.093398266	0.42078382
4.778013174356443e-10	-0.1316835	0.564545	0.77208877	-0.8930932	-0.15579513	0.4220258
4.848558020979852e-10	-0.08345696	0.5179521	0.80973613	-0.88154507	-0.21178341	0.42191735
4.918254294431919e-10	-0.033671707	0.4677405	0.842419	-0.8687906	-0.26236606	0.41994178
4.987922042155352e-10	0.016591493	0.4127878	0.87027967	-0.8554075	-0.30891326	0.41573328
5.058333150259773e-10	0.066241644	0.35207236	0.8932234	-0.8417077	-0.35255176	0.40892786
5.129173014243634e-10	0.11339976	0.2857323	0.91070604	-0.82801837	-0.39365423	0.3992667
5.198999847364731e-10	0.15568434	0.2155413	0.92218304	-0.8146883	-0.4320215	0.3868277
5.268546374477627e-10	0.19245721	0.1415939	0.92774665	-0.80146694	-0.46864465	0.37150714
5.337947717339886e-10	0.2229715	0.06476885	0.9273592	-0.78808284	-0.50402784	0.35337013
5.406250329935821e-10	0.2465041	-0.012631763	0.9211736	-0.77441084	-0.5379864	0.33292642
5.473680798309982e-10	0.26335275	-0.08955073	0.90949494	-0.7601137	-0.57079184	0.31048334
5.540799945815471e-10	0.27415365	-0.16538817	0.8925272	-0.74482703	-0.6027396	0.28620434
5.608152358810839e-10	0.27969393	-0.23960152	0.87036556	-0.72822344	-0.6340232	0.2601629
5.67590643657276e-10	0.28092685	-0.3113097	0.84316266	-0.7100857	-0.6646224	0.23247023
5.743931869180749e-10	0.27906805	-0.37945557	0.8112195	-0.6902793	-0.6944001	0.2032648
5.811301790643691e-10	0.27561268	-0.44246894	0.7753479	-0.6689074	-0.72293776	0.17297226
5.878394990158651e-10	0.27209732	-0.500304	0.7357702	-0.6456379	-0.7504327	0.14140123
5.945247517440022e-10	0.2700545	-0.5526924	0.69283503	-0.62015134	-0.77693737	0.108467996
6.011650277005777e-10	0.27094996	-0.5992714	0.6470385	-0.59216315	-0.80238056	0.07420209
6.077594198231936e-10	0.27610436	-0.6398747	0.5987413	-0.5612849	-0.82670987	0.03852906
6.143449213727507e-10	0.28674653	-0.67446387	0.5479861	-0.5269016	-0.8499114	0.0011202656
6.208079710198581e-10	0.30358744	-0.70216304	0.49599254	-0.48921108	-0.8713463	-0.03753838
6.271527097419405e-10	0.3271072	-0.72271883	0.4431165	-0.4478734	-0.89071083	-0.07765179
6.334055161728962e-10	0.35762087	-0.7357404	0.389511	-0.40233517	-0.9076351	-0.11963264
6.395468506542718e-10	0.39494547	-0.7405471	0.33572656	-0.35230112	-0.9214641	-0.1636088
6.456048074903512e-10	0.43884185	-0.7363765	0.28192583	-0.29705653	-0.93146145	-0.21000037
6.515999185897891e-10	0.48876685	-0.7222358	0.22836904	-0.23586446	-0.93657	-0.2591167
6.57568580511308e-10	0.5440104	-0.6968738	0.17523278	-0.16778752	-0.93532956	-0.31130376
6.635724313657125e-10	0.6037712	-0.65859014	0.12256684	-0.09156282	-0.9256187	-0.36703593
6.695173816342439e-10	0.66516966	-0.606784	0.071890526	-0.008246422	-0.90501106	-0.4251173
6.753825171160897e-10	0.7255039	-0.54116714	0.024114573	0.08119987	-0.8708067	-0.48468238
6.81216423084389e-10	0.78244007	-0.46114388	-0.020361071	0.1760712	-0.8194218	-0.54529667
6.870846918174761e-10	0.8333974	-0.36600584	-0.061104342	0.27496037	-0.7460061	-0.6063582
6.930346803501295e-10	0.8751097	-0.25562292	-0.09733668	0.37443945	-0.64458	-0.66641825
6.990625667745314e-10	0.90364254	-0.13163857	-0.12782688	0.46743527	-0.5093938	-0.72237635
7.051102032507666e-10	0.9152993	0.0018106881	-0.15119828	0.54258895	-0.33754283	-0.769067
7.111957857101497e-10	0.90762985	0.1410278	-0.16663796	0.5860954	-0.12812304	-0.7999129
7.173233665963733e-10	0.8792239	0.2812584	-0.17344321	0.5813334	0.11267753	-0.80566764
7.234321067196344e-10	0.83068776	0.41596726	-0.17123635	0.51418424	0.36542702	-0.775732
7.295148135041419e-10	0.7641951	0.54026353	-0.16017792	0.38085568	0.6020981	-0.70144683
7.355735162057696e-10	0.6830596	0.6503438	-0.14074022	0.19373871	0.7909615	-0.5799745
7.416904463860222e-10	0.59010506	0.7446836	-0.11323767	-0.021242376	0.9089787	-0.4157038
7.47840391916856e-10	0.49005195	0.8208751	-0.07849166	-0.22662559	0.9473608	-0.22521338
7.540580146591408e-10	0.38690156	0.87853944	-0.037198383	-0.39277476	0.91900855	-0.02943322
7.60243798682285e-10	0.28663418	0.9174162	0.0088861855	-0.50399256	0.850829	0.14813375
7.664082502624485e-10	0.19269459	0.93952996	0.058629423	-0.5657284	0.7699961	0.29498768
7.72598028422015e-10	0.107203916	0.947336	0.11131702	-0.59291047	0.69479126	0.407072
7.78850374642118e-10	0.03183997	0.94319403	0.16630904	-0.6021365	0.6341144	0.48502955
7.850664215368845e-10	-0.030956035	0.9297049	0.22185941	-0.607704	0.58992326	0.53147054
7.912931851602074e-10	-0.08125327	0.9092234	0.2776275	-0.6194644	0.5573602	0.552429
7.975474621054406e-10	-0.11914396	0.88368905	0.33313185	-0.642171	0.5296085	0.5535978
8.037742529233929e-10	-0.14477105	0.8549495	0.387367	-0.6758077	0.50017774	0.54060507
8.099438164548722e-10	-0.1589904	0.8243647	0.439683	-0.7170979	0.4643611	0.5188005
8.16085197811705e-10	-0.16297786	0.7925635	0.49002773	-0.76175165	0.41978437	0.49239963
8.222170467751262e-10	-0.15779254	0.7598297	0.53830296	-0.8055351	0.3664359	0.46449727
8.282827546372594e-10	-0.14462243	0.72655606	0.58387446	-0.8447056	0.30668592	0.4374295
8.343186658313874e-10	-0.12454997	0.69241375	0.6268612	-0.8775748	0.24283549	0.4121018
8.40355285291814e-10	-0.09850147	0.65692514	0.6672944	-0.90356874	0.17713028	0.3886907
8.464206989442029e-10	-0.06731451	0.6194936	0.7051319	-0.92289853	0.11136237	0.36689165
8.52539936056319e-10	-0.031806502	0.57944596	0.74024993	-0.9362079	0.046732266	0.34614083
8.586504844204026e-10	0.0066186273	0.5366858	0.77202797	-0.9442127	-0.0153025165	0.32605913
8.646961847388033e-10	0.04646039	0.49124458	0.8000109	-0.94780374	-0.074005686	0.30626956
8.706868970947485e-10	0.08664945	0.44284546	0.8241361	-0.947798	-0.12970714	0.28631198
8.766393493283937e-10	0.12623249	0.39128256	0.84435856	-0.9447408	-0.1829566	0.26585028
8.825684839329823e-10	0.16431728	0.33649457	0.86060905	-0.9389323	-0.23430103	0.24467517
8.884885086902643e-10	0.200088	0.27856368	0.8728023	-0.93048537	-0.28421104	0.22266808
8.94415415803901e-10	0.23283449	0.21768975	0.88084733	-0.91937745	-0.33305794	0.1997568
9.003609691448275e-10	0.2619386	0.15424652	0.88464504	-0.9055135	-0.38105053	0.17590627
9.06325283093643e-10	0.28688347	0.08885977	0.88411343	-0.8887987	-0.42818826	0.15112497
9.123014415786054e-10	0.307338	0.022343308	0.8792317	-0.86917716	-0.47432807	0.12542948
9.18287724420253e-10	0.32323396	-0.0444781	0.8700441	-0.84661305	-0.51931083	0.09877565
9.242989807568701e-10	0.33477092	-0.11094226	0.85661036	-0.8210223	-0.56306696	0.07098779
9.303378178103708e-10	0.3423275	-0.17626223	0.83903646	-0.79235643	-0.6054165	0.041876294
9.363877262452545e-10	0.34648493	-0.23950057	0.8175353	-0.76063997	-0.6460484	0.01128283
9.424446019096206e-10	0.3480398	-0.299951	0.7923318	-0.72579515	-0.6847433	-0.02105855
9.485194227026251e-10	0.34792858	-0.35715488	0.763599	-0.6875646	-0.72135216	-0.05553734
9.546263431587594e-10	0.34717867	-0.41075125	0.73147297	-0.6455327	-0.75567037	-0.09260261
9.606838422184425e-10	0.3468833	-0.4596817	0.69663644	-0.59988254	-0.7868967	-0.13208866
9.667039690858822e-10	0.3480978	-0.5038397	0.6593143	-0.5501265	-0.8146657	-0.17433271
9.727037853491097e-10	0.35182244	-0.5431479	0.6196633	-0.49564475	-0.8384284	-0.21969727
9.787007357922945e-10	0.35900265	-0.5774693	0.5778052	-0.43574044	-0.8573523	-0.26854777
9.846810971574462e-10	0.37045535	-0.60641986	0.5340736	-0.37003407	-0.87017477	-0.32096723
9.906014472740882e-10	0.38672662	-0.6294804	0.4890566	-0.29866856	-0.8753014	-0.37665552
9.964838359735135e-10	0.40830016	-0.6463568	0.44287258	-0.22126754	-0.87087154	-0.43577868
1.0023538158614001e-09	0.43555212	-0.656549	0.39560205	-0.13762219	-0.85437423	-0.49842787
1.0082326361725806e-09	0.4686979	-0.6592996	0.3473679	-0.047999755	-0.8224935	-0.56441903
1.0141316025606916e-09	0.50768596	-0.65360796	0.29840875	0.046401493	-0.77106726	-0.6330166
1.0200562893874245e-09	0.55211854	-0.63829005	0.2490718	0.14297271	-0.69516516	-0.7026666
1.026015537406563e-09	0.60122854	-0.6120202	0.19976215	0.23713462	-0.5892851	-0.7706827
1.0320327099553729e-09	0.6539084	-0.57329595	0.15087795	0.32161182	-0.44771478	-0.832782
1.0380693620720944e-09	0.70795095	-0.52114296	0.10344343	0.38470033	-0.26818055	-0.8817065
1.0440764834385766e-09	0.76050043	-0.4553837	0.058629796	0.41209358	-0.054501884	-0.9079524
1.0500511839949796e-09	0.80875945	-0.37616593	0.017281814	0.38990885	0.18253887	-0.90088964
1.0560435376785077e-09	0.85010326	-0.28347892	-0.02005117	0.30779523	0.42451388	-0.849558
1.0621287355077758e-09	0.8816947	-0.17726478	-0.05278514	0.16358301	0.6446395	-0.7444379
1.068088418028426e-09	0.8996679	-0.06374632	-0.07892545	-0.02067114	0.8047743	-0.5903103
1.0739802441993806e-09	0.90266365	0.05469664	-0.098286875	-0.21551451	0.8896524	-0.3988194
1.0797125797857746e-09	0.89023775	0.17248842	-0.11041314	-0.38668483	0.9006192	-0.19264871
1.085433239412442e-09	0.8624613	0.28899854	-0.11558789	-0.5171002	0.8550276	0.013559882
1.0911018795624305e-09	0.8204409	0.39998728	-0.11376849	-0.59716034	0.7756802	0.20270579
1.0966158442849932e-09	0.7671592	0.50073445	-0.10543919	-0.63007724	0.6864699	0.36259702
1.1021149988886497e-09	0.70387685	0.59175694	-0.09093724	-0.6274762	0.6014576	0.4941308
1.1077199702838053e-09	0.6315029	0.67303973	-0.070201375	-0.6003215	0.5290666	0.5990523
1.1134762732267988e-09	0.55186504	0.7433133	-0.043223	-0.55946386	0.47447366	0.6783643
1.1191384206447407e-09	0.4712488	0.79900366	-0.011737681	-0.51747954	0.44017455	0.73189664
1.1246717627999222e-09	0.3929348	0.8408157	0.02308181	-0.48274094	0.4218605	0.7649053
1.1301900123295168e-09	0.3175689	0.8708287	0.06110712	-0.45928448	0.4134295	0.78312165
1.1357898654567476e-09	0.24580862	0.8904383	0.102377616	-0.44909608	0.4090272	0.7909777
1.1414668540882777e-09	0.17948313	0.9004981	0.14629745	-0.45224702	0.40318233	0.79225135
1.147016863549688e-09	0.12201035	0.90215904	0.1906506	-0.4657719	0.39197445	0.79048115
1.1524895035327727e-09	0.07318099	0.8971975	0.23523036	-0.48545703	0.37345573	0.78828144
1.1579615106280267e-09	0.032525837	0.8868816	0.28019083	-0.507597	0.34723657	0.7870678
1.1634861628470874e-09	-0.00010928558	0.8721024	0.32557526	-0.52921796	0.3140621	0.78741515
1.1690778732810054e-09	-0.024626013	0.8535957	0.371142	-0.5481606	0.27556163	0.7893138
1.1746911939673507e-09	-0.040893372	0.8321583	0.416188	-0.56315637	0.23408465	0.792346
1.180287659563728e-09	-0.049199477	0.8084598	0.46011442	-0.5740182	0.19180202	0.79590786
1.185870992615064e-09	-0.050125502	0.782832	0.5026987	-0.5813358	0.15006942	0.7994251
1.1914157915435323e-09	-0.044350047	0.75557375	0.5435307	-0.5859562	0.109870374	0.8024088
1.196931032013378e-09	-0.032615565	0.72668684	0.5824886	-0.58877844	0.07142929	0.8045285
1.202440256461591e-09	-0.0155984275	0.69597065	0.6195507	-0.5905328	0.034550376	0.8055754
1.2079696222328482e-09	0.0060923556	0.6631018	0.6546838	-0.5917344	-0.0011231452	0.8054113
1.2135376382353375e-09	0.03184597	0.6277202	0.6877657	-0.59272027	-0.03593071	0.80392843
1.2191627615104149e-09	0.061038703	0.58941233	0.71863246	-0.5937109	-0.07019104	0.8010189
1.224789901036544e-09	0.092587054	0.54829216	0.7467263	-0.5948451	-0.10375427	0.7966202
1.2303663684372318e-09	0.12531126	0.50461215	0.7716149	-0.5962124	-0.13648538	0.7907171
1.2359086057924328e-09	0.15843542	0.45822048	0.79325205	-0.5978764	-0.16864616	0.7832476
1.241435308021675e-09	0.191255	0.40900928	0.8115881	-0.59986424	-0.20049459	0.77413213
1.2469668120760268e-09	0.22312976	0.35692546	0.82656	-0.60215664	-0.2322816	0.7632822
1.2525147926462685e-09	0.253427	0.30208036	0.83806616	-0.6046746	-0.2641791	0.75063586
1.2580803022668522e-09	0.2815355	0.24479344	0.8459897	-0.6072736	-0.2962439	0.7361924
1.2636661013009364e-09	0.30696255	0.18547344	0.8502402	-0.60976243	-0.3284586	0.7200047
1.2692864584876535e-09	0.3293879	0.12449271	0.85074735	-0.6119367	-0.3607646	0.70215297
1.2749537890422315e-09	0.34860483	0.062310137	0.8474365	-0.6136106	-0.39297435	0.68278015
1.2805503880739995e-09	0.36421844	0.00086440146	0.840441	-0.6146458	-0.42407662	0.6625632
1.2860833872984825e-09	0.3765123	-0.05929446	0.8299578	-0.61506504	-0.4537487	0.64180064
1.2915713642215659e-09	0.3859034	-0.11779703	0.8161573	-0.6150014	-0.48173904	0.6207187
1.2970324294091692e-09	0.3928812	-0.17431952	0.7991862	-0.6146813	-0.5078325	0.5994861
1.3024797460881532e-09	0.39799172	-0.22853175	0.77918684	-0.61440104	-0.53185856	0.5782075
1.307920408644074e-09	0.4018326	-0.28008756	0.7563135	-0.61449075	-0.55371594	0.556908
1.3133651910637124e-09	0.40504986	-0.32871485	0.7306982	-0.61526835	-0.5734322	0.5354813
1.318829284328371e-09	0.4083233	-0.37419853	0.7024349	-0.61699235	-0.59116447	0.5136845
1.3243300934889507e-09	0.41235882	-0.4163312	0.67158234	-0.6198155	-0.60718536	0.49115822
1.3298554229517924e-09	0.41785154	-0.4546726	0.63835967	-0.6237175	-0.6217935	0.46758947
1.3353737585585318e-09	0.42543474	-0.48869842	0.6031359	-0.62845945	-0.6353481	0.4427428
1.3408212463072504e-09	0.43556333	-0.5178044	0.566548	-0.6335719	-0.6481951	0.4166198
1.346211837482162e-09	0.4486667	-0.5418918	0.52875173	-0.63852286	-0.6608505	0.3889915
1.3515470840820916e-09	0.46504322	-0.5607419	0.48997566	-0.64270985	-0.67372745	0.35980245
1.3568059396848972e-09	0.48477238	-0.5740453	0.45062292	-0.6455196	-0.68708295	0.32924375
1.3620058922499346e-09	0.50791883	-0.5815838	0.41082084	-0.6464212	-0.7011575	0.2973781
1.367163898712477e-09	0.534444	-0.58303666	0.37070113	-0.64494354	-0.7160948	0.2643028
1.3722996713443655e-09	0.56421316	-0.5779791	0.3303843	-0.640674	-0.7319659	0.23010007
1.3774342308566794e-09	0.5969753	-0.5658719	0.29000154	-0.6332436	-0.74878025	0.19482167
1.3825852678525739e-09	0.63230515	-0.5460818	0.24974409	-0.62231815	-0.76648	0.15850386
1.3877139294592279e-09	0.6691724	-0.5182585	0.21028072	-0.60776097	-0.7847507	0.1215431
1.3927962796304324e-09	0.7064191	-0.48228335	0.17217755	-0.5895428	-0.80326927	0.08419297
1.3978527220814873e-09	0.7430542	-0.43793124	0.13567989	-0.5675302	-0.82183915	0.046324994
1.402857746569109e-09	0.7776487	-0.38556373	0.10137507	-0.54179025	-0.84007096	0.008100251
1.4077949450684485e-09	0.8088306	-0.32583547	0.069749035	-0.5124071	-0.8575872	-0.030412903
1.4126665209819974e-09	0.8354192	-0.25948554	0.04112612	-0.4793745	-0.87405324	-0.069302365
1.4174855077534627e-09	0.85639143	-0.18730733	0.015742436	-0.44258714	-0.8891287	-0.10875048
1.4222801734010347e-09	0.87087476	-0.10999241	-0.0062442613	-0.40176404	-0.9024434	-0.14907813
1.4270834527343415e-09	0.87804925	-0.028242726	-0.024661064	-0.35649437	-0.9135088	-0.19067396
1.4319170707688215e-09	0.877137	0.056930628	-0.039253183	-0.306397	-0.9216263	-0.23386627
1.4367799834848511e-09	0.86755913	0.14395073	-0.049709477	-0.25132668	-0.9258543	-0.27880758
1.441656771059642e-09	0.84914684	0.23085041	-0.055779427	-0.19141	-0.9250523	-0.32552236
1.4465431304552692e-09	0.82213855	0.31584236	-0.05734928	-0.12681565	-0.9178922	-0.37413162
1.451454534331169e-09	0.7870065	0.39755422	-0.054389667	-0.05764673	-0.90273404	-0.42495
1.4564134955402049e-09	0.74440056	0.47482163	-0.046892352	0.015838757	-0.8774723	-0.47836378
1.4614307260353605e-09	0.69528395	0.5464215	-0.034894157	0.09277843	-0.83951414	-0.5345858
1.4664698399367648e-09	0.6413625	0.610766	-0.018655414	0.17087571	-0.7862804	-0.5931204
1.4714711905310096e-09	0.5848652	0.6665772	0.0012755678	0.24654888	-0.7157236	-0.652817
1.4764696199762648e-09	0.526987	0.7141309	0.024618361	0.31658295	-0.6248334	-0.71311456
1.481509812729297e-09	0.46867734	0.7538445	0.05122407	0.37632152	-0.51020634	-0.77279246
1.4866075936830658e-09	0.4111258	0.78593886	0.08085337	0.41867423	-0.3695502	-0.82902586
1.4917482861103639e-09	0.35574895	0.81061816	0.11308178	0.4344185	-0.20360845	-0.8769416
1.4969129036847857e-09	0.30381003	0.8283036	0.14742118	0.41378668	-0.017494485	-0.9098313
1.502103081470564e-09	0.25614017	0.8396192	0.1835069	0.348625	0.17883563	-0.9197408
1.5073326462055215e-09	0.21329302	0.8452005	0.22107384	0.23521629	0.3701464	-0.89842963
1.5126145842091407e-09	0.17571911	0.8456019	0.25986835	0.07784701	0.537236	-0.83950245
1.5179451771343204e-09	0.14387721	0.8413065	0.2995214	-0.10865581	0.6612985	-0.7416943
1.5233343540895988e-09	0.11802983	0.83272445	0.3397669	-0.30223405	0.7312316	-0.6106374
1.5287663806428257e-09	0.098453894	0.8202386	0.3801498	-0.4791349	0.7471588	-0.45914
1.534232341393838e-09	0.08523346	0.8041814	0.4202733	-0.62280405	0.7201935	-0.30309546
1.5397502026858321e-09	0.07828705	0.7847301	0.45994505	-0.72786474	0.6664118	-0.15646267
1.5453116812061093e-09	0.077494	0.7620636	0.4987867	-0.79749537	0.601283	-0.029992893
1.550853481351212e-09	0.08250525	0.73657775	0.53607273	-0.84015596	0.53654957	0.06952846
1.556412926030963e-09	0.09285571	0.7081933	0.57179856	-0.8666122	0.47713327	0.1416066
1.5620053008602006e-09	0.10805581	0.6768302	0.60579807	-0.88552684	0.42359912	0.18758515
1.5676504654841186e-09	0.12758489	0.6423092	0.63791645	-0.9027637	0.37346792	0.21022636
1.5733479083002052e-09	0.15078641	0.6045287	0.6678655	-0.9211409	0.3230105	0.21309757
1.5790596079778712e-09	0.17673141	0.5636666	0.6951866	-0.94072545	0.26884776	0.20056954
1.5847637807009587e-09	0.20445862	0.5198782	0.7195674	-0.95981944	0.20868434	0.17742595
1.5904085830569675e-09	0.23283073	0.47367027	0.7406529	-0.9759283	0.14237474	0.14833081
1.59601550371254e-09	0.26112124	0.42506564	0.75844103	-0.98703	0.07056654	0.11675292
1.6016110270219656e-09	0.28871548	0.37407535	0.77292335	-0.99175	-0.0052603837	0.084976435
1.6071732769333543e-09	0.31485748	0.32121587	0.78397846	-0.9894612	-0.082614005	0.05447868
1.6126856830278362e-09	0.3389595	0.26705596	0.79157615	-0.9803201	-0.15918598	0.025775302
1.6181755027089744e-09	0.360767	0.21179067	0.7957796	-0.96483314	-0.23371798	-0.001498349
1.6236655345706367e-09	0.38011122	0.1556811	0.7966169	-0.94356656	-0.30536547	-0.028033864
1.6291696773595184e-09	0.39689887	0.09910575	0.7940973	-0.9170275	-0.37355816	-0.05462441
1.634690587167612e-09	0.41112632	0.0425826	0.7882414	-0.8856294	-0.4378699	-0.08201197
1.6402221758880773e-09	0.42290783	-0.013272641	0.7791087	-0.8496909	-0.4979527	-0.11080708
1.6457623091482807e-09	0.43250394	-0.06789818	0.7667892	-0.809386	-0.5535809	-0.14151481
1.6513158037741403e-09	0.44030124	-0.12082721	0.75137836	-0.76473904	-0.60458094	-0.17457059
1.6568975489262834e-09	0.44678664	-0.17171112	0.732944	-0.7156024	-0.65077484	-0.21041505
1.6625258989650339e-09	0.45251834	-0.22023724	0.7115265	-0.661697	-0.6918518	-0.24951518
1.6682189860540258e-09	0.4581147	-0.26607698	0.68714887	-0.602628	-0.72728354	-0.29237324
1.6739879716038304e-09	0.46424252	-0.30881938	0.6598558	-0.53794473	-0.75622386	-0.33946496
1.6797595929873616e-09	0.47149622	-0.34748355	0.6301484	-0.46813858	-0.7772232	-0.39046007
1.6855276357457124e-09	0.4804954	-0.38167232	0.5982784	-0.3930463	-0.7889962	-0.44534224
1.6911653158169699e-09	0.49152347	-0.41043597	0.56524366	-0.3143742	-0.7900051	-0.50258523
1.696665783339273e-09	0.50484	-0.4337118	0.53143644	-0.23271412	-0.77907646	-0.5614245
1.70207245091525e-09	0.52070254	-0.45161295	0.49690664	-0.14825016	-0.75465834	-0.62142235
1.7074326308940661e-09	0.5393337	-0.46409327	0.46162555	-0.061486267	-0.7145648	-0.68199503
1.7127868762802172e-09	0.5608933	-0.4708935	0.42557704	0.02635038	-0.65595925	-0.7421666
1.7181548726780893e-09	0.58538073	-0.47155923	0.38888228	0.1127359	-0.5756691	-0.8001969
1.7235273782738784e-09	0.61251456	-0.46556768	0.35188314	0.19338968	-0.47095692	-0.8532623
1.7288789335804533e-09	0.6417178	-0.4524936	0.31506613	0.26238075	-0.34039772	-0.897443
1.7341961942782973e-09	0.67226267	-0.43204063	0.27886117	0.31272113	-0.18432131	-0.9279169
1.7394947149475782e-09	0.7034121	-0.40390947	0.24352485	0.3368209	-0.0050898297	-0.93894374
1.744764735091878e-09	0.7341311	-0.3680407	0.20950612	0.3270801	0.19011286	-0.9239355
1.7500176372912546e-09	0.7633832	-0.32442802	0.17713094	0.27805746	0.3899829	-0.87654114
1.7552939902407026e-09	0.7901757	-0.2729193	0.14658372	0.18802676	0.579813	-0.79141897
1.760540853595402e-09	0.81299204	-0.2145088	0.11860083	0.06354272	0.7393403	-0.66834486
1.765687800033981e-09	0.8304912	-0.15096784	0.09387866	-0.08007042	0.8517983	-0.51424384
1.7707339455622248e-09	0.8419444	-0.08361347	0.072629556	-0.22530903	0.9107909	-0.33936456
1.77572051631136e-09	0.8469217	-0.013260699	0.054855242	-0.35704774	0.9184517	-0.15423687
1.780670101881563e-09	0.8450856	0.05903597	0.040644657	-0.46360347	0.8824879	0.030497395
1.785587826560404e-09	0.8363069	0.13195631	0.030114027	-0.5381893	0.8142749	0.20546624
1.7904772108584935e-09	0.82072383	0.20417622	0.02332636	-0.579234	0.72625303	0.36402977
1.7953561239355252e-09	0.79865474	0.2746556	0.020280454	-0.5891341	0.6294916	0.502815
1.8002530599089961e-09	0.77050644	0.34259337	0.020964896	-0.5723553	0.5326958	0.6208683
1.8051354447277053e-09	0.7372243	0.40648758	0.02530875	-0.5347589	0.44338572	0.7175231
1.8099592868880539e-09	0.70013005	0.46502	0.033060938	-0.48313665	0.36658973	0.79372984
1.814737537941773e-09	0.66023815	0.51789975	0.043952722	-0.4233839	0.30396876	0.85230863
1.819497779113103e-09	0.6183833	0.5651564	0.057767473	-0.36022058	0.25543693	0.8962017
1.8242714022256057e-09	0.57528764	0.60692847	0.07434675	-0.29738447	0.2199088	0.9280682
1.8290825870348164e-09	0.53167784	0.64332956	0.093549624	-0.23794326	0.1957076	0.9502151
1.833937768117616e-09	0.48839697	0.6744049	0.11518038	-0.18448234	0.18071574	0.9646949
1.8388330719011958e-09	0.44632044	0.70024693	0.13898692	-0.1389315	0.17241776	0.9734477
1.8437551568842877e-09	0.4063092	0.7210277	0.16465198	-0.10246091	0.16808316	0.9782905
1.8486889304361468e-09	0.36910313	0.73703265	0.1918319	-0.07540025	0.16498867	0.9808444
1.8536587164236576e-09	0.33502755	0.7487071	0.22040734	-0.05722388	0.1605848	0.9824389
1.8586040483000125e-09	0.30484763	0.7563198	0.24977888	-0.047167055	0.1527195	0.98400176
1.863534950225765e-09	0.27868012	0.76032394	0.27975923	-0.043742143	0.13961521	0.9860667
1.8684690544472977e-09	0.2565391	0.7610845	0.31023484	-0.04528682	0.11988332	0.9887527
1.8734202627841285e-09	0.2384241	0.7588599	0.3410889	-0.050060265	0.09258158	0.9917897
1.878399614610035e-09	0.22431783	0.75381213	0.37219524	-0.056348525	0.057287596	0.99456644
1.88340104979411e-09	0.21420886	0.7460429	0.40332142	-0.06260783	0.014262204	0.99621594
1.8884288197766534e-09	0.20800862	0.7355791	0.434295	-0.067664295	-0.03581358	0.9957645
1.8934295158771065e-09	0.2056055	0.7225501	0.46459	-0.07074849	-0.09129432	0.9923062
1.898453242481083e-09	0.20675956	0.70680785	0.49431095	-0.07157414	-0.15150808	0.98501873
1.903488955292051e-09	0.21126044	0.6883178	0.5231843	-0.07008107	-0.21515022	0.97323763
1.9085086180730022e-09	0.21880147	0.6671407	0.5508532	-0.0664321	-0.28069544	0.956553
1.9135327782499303e-09	0.22909105	0.6431644	0.5772436	-0.060902514	-0.34730375	0.9345884
1.9185448052816067e-09	0.24174371	0.61646026	0.6020894	-0.05389279	-0.41375607	0.90725034
1.9235627598179386e-09	0.25642192	0.58695185	0.6253106	-0.045802087	-0.47944236	0.87438965
1.9286075997461615e-09	0.2727949	0.5545391	0.6468245	-0.036965482	-0.5439433	0.8358243
1.933694350598767e-09	0.29050237	0.5191634	0.6665026	-0.027570743	-0.60685956	0.79136074
1.9387707537724913e-09	0.30891836	0.48130536	0.68398136	-0.017692175	-0.6670065	0.74145305
1.943841815678726e-09	0.32760692	0.44113317	0.69916195	-0.00702963	-0.72387093	0.68618685
1.94892100956741e-09	0.34618777	0.39878374	0.7119756	0.004972335	-0.77688503	0.6256702
1.9540274899816013e-09	0.3643337	0.35437322	0.72236025	0.019047698	-0.82536495	0.5601263
1.9591730505742483e-09	0.38172987	0.30811054	0.7302283	0.035990782	-0.868436	0.49012393
1.964355376114426e-09	0.3980682	0.26037335	0.73548007	0.05653075	-0.9051199	0.41671905
1.969553362883099e-09	0.41306478	0.21175909	0.73803806	0.08118952	-0.9345026	0.34149867
1.9747367680201346e-09	0.42652324	0.16298349	0.7378923	0.11020467	-0.9559729	0.26632023
1.979900235460827e-09	0.4384275	0.11453121	0.7350955	0.14368698	-0.9693732	0.19264302
1.9850552524878477e-09	0.44888565	0.06671391	0.72970605	0.18166004	-0.9747724	0.12153243
1.990218009470314e-09	0.4580791	0.019786062	0.72176814	0.2240401	-0.97229755	0.053787563
1.9954158575742617e-09	0.46626118	-0.026101377	0.7112874	0.27073812	-0.9620228	-0.010160571
2.000684059948715e-09	0.47374305	-0.07084689	0.6982155	0.32169893	-0.9438307	-0.07019323
2.0060159534511477e-09	0.4808322	-0.11397405	0.6825936	0.3764369	-0.91753846	-0.12598243
2.0113498353603748e-09	0.48782545	-0.15461893	0.6646915	0.43383503	-0.8831705	-0.17703995