# t (s)	mx ()	my ()	mz ()	m.region1x ()	m.region1y ()	m.region1z ()
0	0	1	0	0	1	0
1.023e-12	-0.024330724	0.9995737	0.015728064	-0.025981063	0.9995205	0.016848493
2.047e-12	-0.048066087	0.99831975	0.03154819	-0.051315404	0.9981111	0.03377766
4.095e-12	-0.093594864	0.99349034	0.06335867	-0.09986827	0.9926912	0.067753844
8.191e-12	-0.17645243	0.97565705	0.1272708	-0.18801588	0.972747	0.1356947
1.5445854253671915e-11	-0.29516363	0.92367643	0.23937169	-0.31360802	0.9150852	0.25350884
2.263952627925714e-11	-0.3781013	0.855858	0.3463448	-0.40086588	0.84073764	0.36394817
2.995873704055511e-11	-0.43036658	0.7786964	0.44860917	-0.45618552	0.757197	0.46746892
3.7490335620977486e-11	-0.45549935	0.6964037	0.5454467	-0.48432437	0.6691645	0.5635702
4.528565097588261e-11	-0.45692307	0.61138916	0.6358337	-0.48972878	0.57920706	0.6516338
5.3348748573333245e-11	-0.43829763	0.5248156	0.71831703	-0.4767515	0.48849982	0.73074985
6.164897265278147e-11	-0.4037634	0.43679225	0.79127157	-0.4498261	0.39714462	0.79989356
7.016287119002521e-11	-0.3576786	0.34638107	0.8532998	-0.4132565	0.30423215	0.8582159
7.89084657771542e-11	-0.3041146	0.25178218	0.90326124	-0.370858	0.20802489	0.9050032
8.793363448416391e-11	-0.24671619	0.15094367	0.9398568	-0.32592636	0.106519625	0.93926525
9.728681368765969e-11	-0.18879965	0.04231003	0.9613217	-0.28137887	-0.0018933179	0.95945024
1.0699569054481468e-10	-0.1332067	-0.07448071	0.96546936	-0.23964667	-0.11784755	0.9634837
1.1672539102001814e-10	-0.083290085	-0.19395849	0.9508634	-0.20327243	-0.23648432	0.9498645
1.2562233225719274e-10	-0.042009544	-0.30303046	0.9211403	-0.17395273	-0.345481	0.921806
1.341525341975297e-10	-0.004257029	-0.40493196	0.8783048	-0.14728501	-0.44863644	0.88103426
1.4262935997378628e-10	0.034603577	-0.5009347	0.82242584	-0.11907317	-0.54789895	0.82743835
1.5116119576509559e-10	0.07901067	-0.5892751	0.75364673	-0.08492324	-0.642337	0.7609523
1.5953547551873456e-10	0.1319799	-0.6645088	0.6750224	-0.041271463	-0.72712326	0.68430966
1.6769428637495776e-10	0.19633439	-0.7229543	0.58919203	0.015330096	-0.79905283	0.5998429
1.7573147859920202e-10	0.27484196	-0.76153207	0.49739963	0.08849278	-0.8555808	0.5084569
1.8358101125923742e-10	0.36715043	-0.775611	0.40283942	0.17923714	-0.89197004	0.412911
1.9135815212581277e-10	0.47272494	-0.7605467	0.3068839	0.2887387	-0.9033829	0.3140443
1.9911451871138617e-10	0.5879319	-0.71063006	0.21208666	0.41553324	-0.88295346	0.21376881
2.0671994075422515e-10	0.70319164	-0.62284887	0.12373964	0.5516909	-0.8245222	0.11694969
2.1411131564742963e-10	0.807425	-0.4983465	0.046321906	0.68648034	-0.72511053	0.027996793
2.2146725292179803e-10	0.8918407	-0.33767217	-0.01820591	0.81082964	-0.58117616	-0.0511582
2.2888044199109943e-10	0.9454675	-0.14531097	-0.06641917	0.91128576	-0.39227182	-0.11654238
2.3624503870985396e-10	0.9580071	0.0641792	-0.09408533	0.9711444	-0.16919927	-0.16216908
2.435221683198569e-10	0.9261837	0.27379537	-0.09939097	0.97946864	0.07099063	-0.18400402
2.507682613430615e-10	0.85297006	0.4689173	-0.08235182	0.9327447	0.30998623	-0.17996462
2.58017198736059e-10	0.74658227	0.6365616	-0.04421707	0.8351385	0.5281011	-0.14954446
2.6526363993182724e-10	0.61968964	0.7673093	0.0122342855	0.69917786	0.70785797	-0.094616994
2.7260206875432306e-10	0.48461688	0.85856175	0.084155485	0.5405333	0.8404854	-0.018184975
2.80127389790793e-10	0.35298735	0.91096544	0.16865568	0.37596685	0.9229029	0.075977445
2.879261254384783e-10	0.23515263	0.92751557	0.26270282	0.22137713	0.95711327	0.18346128
2.9604436598997105e-10	0.1399074	0.9128762	0.36268508	0.0904078	0.949176	0.2990374
3.0427909967768037e-10	0.07461566	0.8740486	0.46201396	-0.0056286803	0.9092358	0.41422302
3.1275847469001396e-10	0.03918764	0.8167361	0.5586218	-0.06633138	0.84662676	0.5262644
3.216341722138115e-10	0.032500718	0.74379015	0.65076107	-0.09336437	0.76690626	0.6333318
3.310505873523903e-10	0.052840907	0.65565693	0.7360841	-0.08926402	0.67229986	0.73340786
3.408369768683903e-10	0.0957907	0.55411655	0.80915	-0.058872342	0.56556714	0.82121956
3.509208306447364e-10	0.15449236	0.43959036	0.8659843	-0.009749269	0.44685596	0.89322484
3.609775191178228e-10	0.21945821	0.31626248	0.9025166	0.048051775	0.31915084	0.94516313
3.709426621575267e-10	0.28361326	0.18720496	0.9178144	0.10643629	0.18370889	0.9758383
3.8099357988894146e-10	0.3437516	0.05397931	0.911706	0.16087225	0.040046863	0.9847024
3.9125371780516883e-10	0.3987592	-0.07951105	0.8834995	0.20882817	-0.10993856	0.9701233
4.012893885110444e-10	0.44762	-0.2009968	0.83569676	0.24861458	-0.25438777	0.932714
4.1110320647599965e-10	0.4941489	-0.30440694	0.7717183	0.28415447	-0.38731188	0.8748131
4.210207185514709e-10	0.54450387	-0.3868021	0.69268376	0.32263416	-0.5067279	0.79667354
4.30642593868355e-10	0.60057753	-0.43934262	0.60568875	0.3692762	-0.6018266	0.7046083
4.398802579552947e-10	0.663087	-0.45896593	0.51639616	0.42855603	-0.6676191	0.6042879
4.4898596583760555e-10	0.7321936	-0.44409373	0.42692757	0.50451267	-0.7014338	0.49757043
4.579319764594564e-10	0.80334675	-0.39301148	0.34196705	0.59629565	-0.6976798	0.3892458
4.668881429356475e-10	0.8706985	-0.30443668	0.26447827	0.7009953	-0.6502059	0.28212664
4.756669308322255e-10	0.9238348	-0.18342476	0.2004688	0.806976	-0.5558182	0.18380651
4.844792010848317e-10	0.95480275	-0.034403406	0.15238753	0.90292865	-0.4117321	0.097827025
4.932805698863414e-10	0.95580757	0.13105634	0.12396877	0.9717466	-0.2231688	0.031082924
5.02028682309654e-10	0.9240152	0.29801664	0.11714253	0.99788296	-0.0042948076	-0.010335131
5.108651134432227e-10	0.86131203	0.45441732	0.1321329	0.9717382	0.22794497	-0.022396341
5.198214895991876e-10	0.7746997	0.587599	0.16800192	0.8918473	0.4494524	-0.0022164173
5.287785364518939e-10	0.6768671	0.68716353	0.22119904	0.77046365	0.63383806	0.04880339
5.378278574559532e-10	0.57949555	0.7509926	0.28786457	0.6266219	0.7675487	0.12624168
5.469999518477376e-10	0.49337655	0.7801275	0.36347324	0.48237228	0.8455001	0.22326104
5.56321672562989e-10	0.42641318	0.77823997	0.44342116	0.3567236	0.87147313	0.33196694
5.659154300135046e-10	0.38271803	0.7495857	0.52412266	0.26134312	0.8540076	0.44587746
5.758684419236915e-10	0.3641252	0.69756544	0.6017797	0.20239894	0.80169964	0.5589069
5.860391306380009e-10	0.36970845	0.6262483	0.6710276	0.18091333	0.72317064	0.6634412
5.964222809769814e-10	0.39528772	0.53867	0.7281283	0.1915702	0.62407416	0.7547409
6.072392126409646e-10	0.4362007	0.4353373	0.7705224	0.2273417	0.5047947	0.8302581
6.186847968371169e-10	0.48767838	0.31712037	0.79450035	0.28085908	0.36382344	0.8857856
6.308100992067739e-10	0.5444026	0.18855463	0.7955301	0.34337348	0.20200403	0.91492844
6.430152887255876e-10	0.59954286	0.0645033	0.7718055	0.4037052	0.03303654	0.9118559
6.548059024007025e-10	0.6502615	-0.04067426	0.7275027	0.45645443	-0.12648866	0.8779007
6.666378543436435e-10	0.7003474	-0.122289404	0.6656935	0.5063777	-0.27152124	0.81497157
6.782971660722173e-10	0.75100684	-0.17099802	0.59279484	0.55892056	-0.38784528	0.7284348
6.892828462033317e-10	0.8003333	-0.1822278	0.5186292	0.61798966	-0.46275926	0.6297327
7.000081409244283e-10	0.84777415	-0.15751103	0.44661045	0.68842804	-0.4941635	0.5233897
7.107720722011045e-10	0.8897044	-0.09707071	0.3803299	0.7707472	-0.47604933	0.41387558
7.212105648874517e-10	0.9183695	-0.0078398865	0.32692838	0.8545693	-0.40540385	0.31271678
7.313796222162864e-10	0.9287083	0.10098739	0.28936473	0.9276255	-0.28543177	0.22680315
7.415058346464307e-10	0.91766757	0.22073422	0.2690249	0.9766388	-0.12183957	0.16129611
7.516463736028362e-10	0.8847658	0.3402452	0.2670383	0.98785913	0.07162222	0.12242778
7.618220207510376e-10	0.83344215	0.4482897	0.28308448	0.9533879	0.27357268	0.11477284
7.718687421004639e-10	0.7717235	0.5344816	0.3145634	0.8773416	0.45647153	0.13891214
7.818499074583226e-10	0.7078992	0.5949099	0.3579301	0.7734478	0.60212517	0.19105218
7.919970765367697e-10	0.64856744	0.6291477	0.41028613	0.657984	0.702066	0.2663943
8.022819136167503e-10	0.6005388	0.63732207	0.4674271	0.55012155	0.7523469	0.35720435
8.128734283716373e-10	0.56768864	0.62121934	0.5260679	0.46338588	0.75668985	0.45668212
8.238161571454712e-10	0.55242825	0.58288884	0.5821454	0.40707296	0.72088253	0.5571219
8.351127551501509e-10	0.5548027	0.5250494	0.6313704	0.38422608	0.6515829	0.6509627
8.470252817015897e-10	0.5731373	0.44925427	0.6703919	0.3925113	0.5521604	0.73303354
8.593746898624532e-10	0.60377514	0.36061394	0.6943549	0.42571187	0.42809135	0.79506385
8.724040549185868e-10	0.6430628	0.26337725	0.7000613	0.47566682	0.28160372	0.83140117
8.863396932456931e-10	0.6879374	0.1648116	0.684266	0.5346498	0.11764666	0.83484256
9.007020968843054e-10	0.73426926	0.08047293	0.64706427	0.59489816	-0.04424108	0.8001992
9.148680574856624e-10	0.77888286	0.025177682	0.59468466	0.6542713	-0.17899075	0.73172563
9.285744854815064e-10	0.8198564	0.0057895286	0.5357457	0.71630925	-0.26849443	0.640172
9.41703856698545e-10	0.85438263	0.02214625	0.47853875	0.7831396	-0.3025208	0.5385801
9.545552000350948e-10	0.8793031	0.0701779	0.4283441	0.852983	-0.27730054	0.4368538
9.670574862989168e-10	0.8902513	0.14185978	0.39048123	0.9154709	-0.19414067	0.34698886
9.79159493709629e-10	0.8848792	0.22597729	0.36796266	0.9566997	-0.0640639	0.27894002
9.90828686465638e-10	0.864103	0.31081507	0.3613165	0.96548337	0.09329613	0.2390439
1.002335787528813e-09	0.830912	0.388487	0.36933827	0.9376197	0.25838575	0.2292207
1.0135933595492574e-09	0.79080445	0.45117685	0.38975388	0.8778306	0.40744114	0.24871989
1.024912175320749e-09	0.748644	0.49598485	0.42018902	0.79646575	0.526655	0.29409218
1.036185197472868e-09	0.7104359	0.52027	0.45702544	0.70993	0.60444343	0.35857514
1.0477008822929054e-09	0.67983663	0.52430636	0.49759522	0.63135076	0.6395923	0.43599916
1.0596985934165538e-09	0.65985966	0.5083036	0.53900343	0.5715702	0.6331213	0.51990366
1.0721383726287181e-09	0.652668	0.47357032	0.57706124	0.5384516	0.5884588	0.6015377
1.0852752095906647e-09	0.6584959	0.42183232	0.60822535	0.5335473	0.5094412	0.67389584
1.0991931475029196e-09	0.67626536	0.35658097	0.62818825	0.554363	0.40068737	0.72846097
1.113859347427998e-09	0.70332026	0.2842695	0.63302964	0.5942573	0.2700073	0.7566139
1.129289871270348e-09	0.7363779	0.21397221	0.62049645	0.64545405	0.12944256	0.7516039
1.1449502504755254e-09	0.7710417	0.15878746	0.5920789	0.7007414	0.0015332155	0.7119563
1.160320254680727e-09	0.8033363	0.12868746	0.5536963	0.7569625	-0.09097991	0.6452824
1.1755686038166739e-09	0.8307788	0.12714235	0.51155674	0.81473863	-0.1343217	0.5619806
1.1903117880218622e-09	0.8495577	0.15269555	0.47325087	0.86924183	-0.12039435	0.4773999
1.2045290264765669e-09	0.85714746	0.19847591	0.44389048	0.91218454	-0.053598113	0.40440765
1.2183507005775793e-09	0.8525467	0.2557431	0.42619938	0.93387353	0.05336364	0.35217032
1.2317557134076874e-09	0.83682764	0.31487092	0.42111322	0.927458	0.18030009	0.32650924
1.2448191851374078e-09	0.8130548	0.36793894	0.42766657	0.89341086	0.30563277	0.3282929
1.2577130189344776e-09	0.7851916	0.40963104	0.44388717	0.83894193	0.41186604	0.35473922
1.2706962154349714e-09	0.7572139	0.43678775	0.4675012	0.77494025	0.48758858	0.4011485
1.2838159108968286e-09	0.7332413	0.44738466	0.4955318	0.7143417	0.5260274	0.46062002
1.2974471856652944e-09	0.71613663	0.4409553	0.5253423	0.6669501	0.52625597	0.5267339
1.3117214578450018e-09	0.7083511	0.41778553	0.5533715	0.64040214	0.48944503	0.5913135
1.3268325670211207e-09	0.7110106	0.37962162	0.57575285	0.6376433	0.41923013	0.64579856
1.3427691284124418e-09	0.72363204	0.33086777	0.58832157	0.6568302	0.32304636	0.68087196
1.3595186445918601e-09	0.7440711	0.27868345	0.5880022	0.6922806	0.21287683	0.6889534
1.376834117162074e-09	0.76881343	0.23306763	0.57409364	0.73701733	0.10742605	0.66655284
1.3940052753296002e-09	0.7932383	0.2043195	0.55004346	0.7843553	0.02987178	0.61870795
1.41117547893777e-09	0.8141084	0.19714294	0.5209208	0.83109397	-0.005224361	0.5551672
1.4280982005276545e-09	0.82795024	0.21203643	0.4930161	0.8712983	0.010059575	0.48981324
1.4445880366159986e-09	0.83239895	0.24401721	0.4716937	0.8967625	0.07070158	0.43621668
1.4604635781045172e-09	0.8271227	0.28458366	0.46008533	0.9005734	0.15984362	0.40385953
1.4754799059821761e-09	0.8142674	0.32457864	0.4585837	0.88225114	0.25459304	0.39571697
1.490023969979433e-09	0.79682964	0.35852066	0.46564943	0.8471816	0.33868343	0.4090871
1.5044854769301385e-09	0.7778201	0.3829114	0.4794563	0.8033389	0.401241	0.43976736
1.5194275503595006e-09	0.75995433	0.39545903	0.4982691	0.7591025	0.4357612	0.48332524
1.5353330595692776e-09	0.7461812	0.39396098	0.5198958	0.7233433	0.43722183	0.5341857
1.5520036634457325e-09	0.73962325	0.37776357	0.5403745	0.7045948	0.4045845	0.58276755
1.569746471873297e-09	0.7416992	0.34864894	0.5558609	0.70589846	0.34201127	0.6200565
1.5881134184184656e-09	0.7518676	0.31251824	0.56233937	0.72514015	0.2616894	0.63666
1.6065360527266678e-09	0.7671946	0.27803546	0.55841595	0.75555086	0.1818839	0.6289617
1.625168809672718e-09	0.7844475	0.25235587	0.54543114	0.79120046	0.1187201	0.5994735
1.643749914580938e-09	0.8000686	0.2412231	0.5269227	0.8263459	0.08708805	0.5559299
1.6624572892203918e-09	0.81117237	0.24653427	0.50725985	0.8556034	0.09428183	0.5085971
1.680957630664276e-09	0.81532025	0.26606762	0.49130863	0.87190324	0.1378465	0.4696378
1.6986456623701182e-09	0.8120739	0.2930632	0.4824885	0.8706918	0.20241196	0.4481245
1.7153336403447612e-09	0.803272	0.32019538	0.48129034	0.853772	0.26897025	0.44571748
1.7315945059841228e-09	0.7912588	0.34300265	0.48658398	0.82645404	0.32506645	0.4596117
1.7479808615930883e-09	0.7783427	0.35844514	0.49697578	0.7951984	0.3624516	0.48601946
1.7651218320264743e-09	0.76682067	0.3642101	0.5108693	0.76675117	0.37558848	0.5205232
1.7834943379620146e-09	0.7592318	0.35846755	0.52591884	0.74801695	0.36084142	0.55692977
1.8027895927419077e-09	0.7578216	0.34172696	0.5383686	0.74424183	0.32032442	0.5859756
1.8230257891142626e-09	0.76301205	0.31763244	0.54486376	0.75557625	0.26291698	0.59981984
1.8434597712604386e-09	0.77303016	0.2932408	0.543476	0.7774878	0.2049623	0.5943399
1.8637443327233396e-09	0.78480935	0.27530676	0.53518	0.8036181	0.16231027	0.57233214
1.883784627547467e-09	0.79533315	0.2680164	0.5228683	0.8281164	0.14542249	0.5411318
1.903918802901332e-09	0.80229837	0.27244595	0.5099309	0.8459269	0.15762188	0.50930834
1.9240982159172916e-09	0.8040258	0.28675526	0.49987954	0.852101	0.19462124	0.48576242
1.9434107786621054e-09	0.80049276	0.30547708	0.49529725	0.8450176	0.24217252	0.47672623
1.961838795787625e-09	0.7934208	0.32321432	0.49626765	0.8282609	0.2859799	0.48185712
1.9801150369080107e-09	0.7847272	0.3366457	0.5018026	0.80693877	0.31743035	0.49806857
1.9989515922972583e-09	0.7763254	0.34337485	0.5106161	0.78646696	0.33089024	0.5214935
2.0190328109196024e-09	0.77024394	0.34161088	0.5209225	0.77227527	0.32286984	0.5470833
2.0403275016718277e-09	0.7684759	0.3311464	0.5298635	0.768964	0.29424018	0.5674814
2.0621175355356662e-09	0.77159816	0.31521162	0.5344369	0.77709496	0.25396088	0.57575905
2.0836697153480654e-09	0.77814907	0.2993363	0.5334545	0.79271424	0.21569888	0.5700124
2.1050246921778535e-09	0.7858792	0.28813344	0.52781254	0.81077784	0.19042179	0.55336493
2.1264564561015475e-09	0.7926208	0.28441048	0.51952755	0.82662296	0.18466118	0.5314725
2.1484495000419168e-09	0.796561	0.2889981	0.51109535	0.8359796	0.19993101	0.5109678
2.170515796967008e-09	0.79646766	0.30004007	0.5053416	0.8354538	0.23043771	0.49888223
2.1915176148679838e-09	0.7928551	0.31283867	0.50386	0.826038	0.26323137	0.49835786
2.2119171769360835e-09	0.78729326	0.3236413	0.50628376	0.81185704	0.28866473	0.5074983
2.2326031639010093e-09	0.78137803	0.33004194	0.5116353	0.7973347	0.30115384	0.52301925
2.25436975504356e-09	0.7767542	0.33035663	0.51851535	0.7868277	0.29750955	0.540701
2.277623986252346e-09	0.77503884	0.32405552	0.5248276	0.7840635	0.277956	0.554908
2.3012289366607667e-09	0.77691585	0.31351462	0.52806556	0.7898843	0.24999774	0.55990255
2.3242096086067535e-09	0.7812537	0.3031203	0.52734387	0.80096567	0.22494741	0.5547455
2.34693391749113e-09	0.78634644	0.29617718	0.52344096	0.8132197	0.21053818	0.5424419
2.3696216644051337e-09	0.79053587	0.29458603	0.5179499	0.8228426	0.21063319	0.52771705
2.391725185837146e-09	0.7925343	0.29827002	0.51293916	0.826841	0.22372064	0.51598036
2.4134610450029047e-09	0.79202205	0.3053875	0.50986904	0.8245069	0.24401739	0.51050955
2.433982874740581e-09	0.78957546	0.31304276	0.5093925	0.81752664	0.2635289	0.5120442
2.4537607568052263e-09	0.7861906	0.31919053	0.5111238	0.8086524	0.2772983	0.5188195
2.473339762539937e-09	0.7828078	0.32261166	0.5143579	0.8004158	0.2828696	0.5284873
2.493003814636181e-09	0.780263	0.32273006	0.5181949	0.79488623	0.27967077	0.5384296
2.5122536928271813e-09	0.77916193	0.3198524	0.5215532	0.79327327	0.26950365	0.545926
2.5314053428141114e-09	0.7795864	0.31496507	0.5237281	0.79541624	0.2554718	0.5495278
2.5505605995211163e-09	0.7813008	0.30937052	0.5243115	0.8004322	0.24116914	0.54869664
2.5695165356932907e-09	0.78377193	0.3044931	0.52330476	0.8068491	0.23013468	0.54401505
2.588445625939997e-09	0.78638625	0.30136916	0.5210812	0.8131542	0.22463699	0.5368846
2.6075531969928374e-09	0.7885584	0.30060145	0.5182255	0.8179666	0.22567284	0.5290961
2.6264657890859013e-09	0.78978324	0.3022132	0.5155086	0.8201555	0.23255992	0.5227013
2.645355683988621e-09	0.78986645	0.30562994	0.5135368	0.8193806	0.24321409	0.51906806
2.6642892209144345e-09	0.7888658	0.30992657	0.5127166	0.8159749	0.25482437	0.5188707
2.6831461795943685e-09	0.78710276	0.31400126	0.51316017	0.8109641	0.26445132	0.5219025
2.7020048935946338e-09	0.7850501	0.316932	0.5146684	0.8056962	0.2699903	0.52719575
2.7210265527254557e-09	0.78320605	0.318123	0.5168335	0.80146396	0.27043438	0.5333759
2.7399476192237083e-09	0.78202057	0.3174054	0.51907796	0.799271	0.26605815	0.53883034
2.7588904349313653e-09	0.7817145	0.31509763	0.5208857	0.79943585	0.2582715	0.54235303
2.7778237821251925e-09	0.78229356	0.3118577	0.52186716	0.8017111	0.24916625	0.54324555
2.796734640618944e-09	0.7835541	0.3085105	0.52185935	0.805388	0.2409827	0.5414922
2.8156428044926566e-09	0.78515595	0.3058379	0.5209428	0.8095196	0.23557766	0.5376978
2.834640368582387e-09	0.78671587	0.3044083	0.5193933	0.8131434	0.23405156	0.53288066
2.8535823515145904e-09	0.7878684	0.3044786	0.51763344	0.8154203	0.23653594	0.5282932
2.8725350012853602e-09	0.7883825	0.30591708	0.51609063	0.8158995	0.24215963	0.5250039
2.8914668541754634e-09	0.7881856	0.30828032	0.51511663	0.814569	0.2493389	0.52371424
2.910379070839915e-09	0.78737915	0.31093997	0.5148994	0.8118685	0.25622934	0.52458435
2.9293173484827745e-09	0.7861988	0.31325197	0.51543707	0.8085462	0.2612114	0.52725136
2.948293730584515e-09	0.7849542	0.31469548	0.5165538	0.80546105	0.26323062	0.53095275
2.9672216492382466e-09	0.7839539	0.31499052	0.51794285	0.80335885	0.26202974	0.534713
2.986199278465586e-09	0.78341556	0.3141541	0.5192669	0.802656	0.2581355	0.53764814
3.0051646195163135e-09	0.7834365	0.31246507	0.5202195	0.8034083	0.2526765	0.53911006
3.0240997918872006e-09	0.7839702	0.31038374	0.5206089	0.80531514	0.24706538	0.5388622
3.0430535288045073e-09	0.7848573	0.3084193	0.52039033	0.8078451	0.24262841	0.53708756
3.0620249357768218e-09	0.78586894	0.30702174	0.5196623	0.81036556	0.2403433	0.53431326
3.0809584034113065e-09	0.786762	0.3064777	0.5186389	0.8122816	0.24061108	0.5312793
3.0999362070527218e-09	0.7873439	0.3068487	0.5175818	0.81318647	0.24319506	0.5287179
3.1188919103952862e-09	0.7875024	0.3079784	0.51674855	0.8129231	0.24730921	0.5272171
3.137824488921412e-09	0.7872356	0.30954048	0.51632077	0.8116333	0.25185192	0.527057
3.156771344470204e-09	0.7866405	0.3111355	0.51637113	0.80969685	0.25571018	0.5281774
3.1757269268962863e-09	0.78588516	0.31238312	0.51685643	0.80762976	0.25800928	0.5302188
3.194653006809095e-09	0.78516525	0.31301275	0.5176321	0.80594623	0.2583176	0.532622
3.2136333178291407e-09	0.7846492	0.31292197	0.51850104	0.8050167	0.25670975	0.5347969
3.2325888644145494e-09	0.7844497	0.3121829	0.51925254	0.8050081	0.25371256	0.5362341
3.2515077950571485e-09	0.7845915	0.31101763	0.51972294	0.8058459	0.2501447	0.5366489
3.2704142415405113e-09	0.78501844	0.30972758	0.5198279	0.80726606	0.2468873	0.53602135
3.2892654121404582e-09	0.7856115	0.3086224	0.51957506	0.8088894	0.24469037	0.5345802
3.3081636375298666e-09	0.78622764	0.3079381	0.519052	0.8103303	0.24398804	0.5327179
3.327007423427468e-09	0.78672326	0.30780345	0.5184062	0.811258	0.24484499	0.53091276
3.3458474416506995e-09	0.7869982	0.30820456	0.5177987	0.8114931	0.24694526	0.5295823
3.364713590601108e-09	0.78700835	0.3090077	0.5173706	0.811025	0.24970794	0.5290061
3.383553787221988e-09	0.7867743	0.309992	0.5172123	0.8100138	0.25242475	0.5292675
3.40235728860304e-09	0.78637296	0.31091204	0.51734257	0.8087403	0.2544572	0.53024065
3.4211724613352667e-09	0.78591347	0.3115592	0.51771295	0.807524	0.25538343	0.5316459
3.43998818890466e-09	0.7855104	0.31180096	0.51822317	0.80664957	0.25506645	0.5331213
3.458811151832372e-09	0.78525734	0.31160903	0.518748	0.8062974	0.25367144	0.5343158
3.477684627353839e-09	0.7852056	0.31105557	0.51916885	0.80651176	0.25159803	0.53496987
3.496513309317501e-09	0.7853561	0.3102956	0.519397	0.8071989	0.24939051	0.5349659
3.5152898237779342e-09	0.78566134	0.309519	0.5193986	0.8081603	0.24757585	0.53435653
3.534102760900212e-09	0.7860442	0.30890065	0.51919335	0.8091566	0.24654312	0.53332615
3.5529287952189855e-09	0.7864144	0.30857074	0.5188467	0.8099524	0.24648349	0.53214616
3.5717522367010725e-09	0.7866907	0.30858254	0.51845276	0.81037456	0.24734335	0.5311054
3.590601445631252e-09	0.78682005	0.30890623	0.51810884	0.8103496	0.24885719	0.5304379
3.609424015057089e-09	0.7867868	0.30944043	0.51789516	0.809914	0.25061765	0.5302756
3.6282264628348873e-09	0.78661466	0.31004283	0.5178542	0.80920047	0.2521926	0.53061855
3.647054318104338e-09	0.7863571	0.31056753	0.5179857	0.80839616	0.25322828	0.5313505
3.6658740273555258e-09	0.7860844	0.31089535	0.51824963	0.80769885	0.25351876	0.53227043
3.6847118616413937e-09	0.7858645	0.31096265	0.5185785	0.8072645	0.25305012	0.5331501
3.703568269858514e-09	0.7857485	0.31076995	0.51889455	0.80717677	0.2519862	0.5337849
3.7223846787912545e-09	0.7857594	0.31037968	0.51912767	0.8074298	0.25062343	0.53404266
3.741201633809653e-09	0.7858886	0.309894	0.51923394	0.80793875	0.24930064	0.5338914
3.760026400378741e-09	0.7861014	0.3094296	0.51920116	0.8085663	0.2483247	0.533396
3.778848280520625e-09	0.78634596	0.30909014	0.51905036	0.80915725	0.24790022	0.5326974
3.797672327368822e-09	0.7865673	0.3089424	0.5188282	0.8095765	0.24808761	0.53197396
3.816499143295405e-09	0.78671956	0.30900398	0.51859456	0.80973756	0.24879944	0.53139746
3.835299371415456e-09	0.7867764	0.30924222	0.5184077	0.80962086	0.2498292	0.53109306
3.85411146376432e-09	0.7867356	0.3095866	0.5183102	0.80927354	0.25091383	0.5311117
3.872873007325839e-09	0.78661776	0.30994603	0.51832104	0.808795	0.25179222	0.53142494
3.891634868480205e-09	0.7864595	0.31023484	0.5184323	0.80830634	0.25227708	0.5319379
3.910385371800815e-09	0.7863041	0.31038916	0.51861405	0.80792266	0.25228414	0.5325163
3.929150028766342e-09	0.78619057	0.31038103	0.51882243	0.8077257	0.25184628	0.5330211
3.947945572625317e-09	0.7861459	0.31022125	0.5190107	0.807748	0.2510963	0.53334004
3.966712151146466e-09	0.786179	0.30995575	0.5191396	0.8079683	0.2502335	0.5334111
3.985444777237901e-09	0.7862798	0.30965132	0.519187	0.8083202	0.24946749	0.5332367
4.004191924589389e-09	0.78642416	0.30937755	0.51915133	0.80871296	0.24896733	0.53287506
4.0229350619344906e-09	0.786579	0.30919266	0.51905	0.80905235	0.24883112	0.53242385
4.041712610281185e-09	0.7867122	0.3091301	0.5189137	0.8092637	0.24906525	0.5319936
4.0605040104580435e-09	0.786798	0.30919307	0.5187797	0.80930626	0.24958944	0.53168404
4.079238016864956e-09	0.78682375	0.30935478	0.5186819	0.80918217	0.25025812	0.53155917
4.097980376854959e-09	0.7867919	0.30956826	0.5186428	0.8089324	0.25090674	0.53163373
4.116741763481234e-09	0.7867175	0.3097782	0.5186701	0.8086241	0.25138575	0.53187644
4.13550554907949e-09	0.78662455	0.3099338	0.5187557	0.8083334	0.25159532	0.5322186
4.154272866066896e-09	0.78653944	0.31000063	0.51887864	0.8081272	0.25150582	0.5325734
4.173051319673353e-09	0.7864849	0.3099672	0.51901084	0.8080475	0.25115964	0.53285724
4.191797273419603e-09	0.78647494	0.3098462	0.5191239	0.80810326	0.25065687	0.5330087
4.21055814224624e-09	0.7865122	0.3096692	0.5191965	0.808272	0.2501249	0.53300244
4.229353308187182e-09	0.78658825	0.30947813	0.5192179	0.80850637	0.24968939	0.532851
4.248143586795046e-09	0.7866864	0.30931595	0.5191896	0.8087471	0.24944596	0.5325999
4.26691929069118e-09	0.7867861	0.3092152	0.5191249	0.80893725	0.24943772	0.5323154
4.285694285480454e-09	0.78686774	0.30919176	0.5190445	0.8090364	0.24964921	0.53206605
4.304450398277578e-09	0.78691757	0.3092428	0.518971	0.80902797	0.25001508	0.53190744
4.323233826800594e-09	0.78693026	0.30934846	0.51892364	0.80892146	0.25043955	0.53187
4.342031617698309e-09	0.78690904	0.30947778	0.5189145	0.8087487	0.25081912	0.53195393
4.360835195562016e-09	0.78686506	0.30959645	0.51894593	0.8085548	0.25106812	0.5321311
4.3796278953295636e-09	0.78681374	0.3096751	0.5190105	0.808387	0.25113752	0.53235304
4.398391896072809e-09	0.78677124	0.309696	0.51909375	0.8082825	0.25102472	0.5325645
4.417167698681992e-09	0.7867501	0.309656	0.51917803	0.8082608	0.2507692	0.5327174
4.435970867642609e-09	0.78675747	0.30956602	0.51924706	0.8083213	0.2504402	0.5327801
4.454781381279296e-09	0.7867932	0.3094479	0.51928866	0.8084439	0.25012025	0.5327443
4.473580713364268e-09	0.78685045	0.3093284	0.5192981	0.8085953	0.24988358	0.5326255
4.4923610743144264e-09	0.78691804	0.3092326	0.51927876	0.80873823	0.24977946	0.5324576
4.51114353225202e-09	0.78698325	0.309178	0.51923996	0.8088399	0.24982233	0.5322832
4.529937710764463e-09	0.78703487	0.3091716	0.51919514	0.80887973	0.24999177	0.5321434
4.54875619419653e-09	0.78706557	0.3092087	0.5191579	0.80885255	0.25023943	0.53206855
4.5675821939653915e-09	0.78707343	0.30927482	0.5191393	0.8087696	0.25050154	0.5320716
4.586386372707421e-09	0.78706187	0.30934972	0.5191451	0.8086543	0.25071543	0.53214604
4.605160051363941e-09	0.7870386	0.30941272	0.51917505	0.80853623	0.2508347	0.5322691
4.623924971098495e-09	0.7870137	0.30944762	0.5192232	0.80844307	0.2508388	0.53240865
4.642675503883365e-09	0.78699636	0.30944583	0.51928014	0.80839443	0.25073528	0.53253084
4.661447517832086e-09	0.78699374	0.3094077	0.5193348	0.8083986	0.2505558	0.5326088
4.6802334654226844e-09	0.7870088	0.309342	0.5193778	0.8084508	0.25034764	0.5326272
4.6990035358887e-09	0.7870405	0.3092633	0.51940286	0.8085354	0.25016147	0.53258634
4.717755174677566e-09	0.7870837	0.309188	0.5194084	0.80863017	0.25003913	0.5324999
4.736495268306902e-09	0.78713125	0.30913046	0.51939744	0.8087125	0.25000417	0.5323914
4.755227023488282e-09	0.7871754	0.30909982	0.5193767	0.80876416	0.2500583	0.53228766
4.773981167929323e-09	0.78721	0.30909845	0.5193543	0.8087754	0.25018272	0.53221226
4.792737883696836e-09	0.78723115	0.3091218	0.5193385	0.8087465	0.25034347	0.5321807
4.8114670946095436e-09	0.7872385	0.30915996	0.51933515	0.8086871	0.2505002	0.5321973
4.830202300779186e-09	0.7872352	0.30920035	0.519347	0.8086132	0.2506172	0.5322546
4.848936236911721e-09	0.7872261	0.30923092	0.5193729	0.8085429	0.25067008	0.53233635
4.867685413808368e-09	0.78721726	0.30924255	0.5194089	0.8084925	0.25065118	0.5324219
4.886424699585126e-09	0.7872143	0.30923134	0.5194484	0.80847186	0.25057	0.5324909
4.905131323853803e-09	0.7872209	0.3091989	0.51948524	0.8084841	0.2504502	0.53252876
4.923826683472749e-09	0.78723836	0.3091515	0.51951367	0.80852354	0.25032222	0.532529
4.942559689075783e-09	0.7872654	0.30909824	0.5195308	0.80857927	0.25021595	0.53249407
4.961310926266982e-09	0.78729874	0.3090492	0.51953626	0.80863744	0.2501547	0.53243476
4.980043116114471e-09	0.78733355	0.30901265	0.51953226	0.80868405	0.2501495	0.5323665
4.998757741056453e-09	0.7873653	0.30899322	0.5195234	0.80870914	0.25019744	0.53230584
5.017471064641347e-09	0.7873906	0.30899137	0.51951474	0.8087088	0.25028342	0.5322662
5.036203786143114e-09	0.7874074	0.3090036	0.519511	0.80868465	0.25038505	0.53225523
5.054929402598755e-09	0.7874161	0.30902317	0.51951545	0.808644	0.25047746	0.5322734
5.0736716356702416e-09	0.7874187	0.3090425	0.51952916	0.80859756	0.25053996	0.53231454
5.092384974903924e-09	0.78741866	0.30905432	0.51955104	0.80855656	0.25056022	0.5323672
5.111072343446389e-09	0.7874195	0.30905378	0.51957834	0.80853003	0.25053665	0.5324185
5.129784135781537e-09	0.7874246	0.3090392	0.51960695	0.808523	0.25047785	0.53245676
5.14850782305653e-09	0.78743577	0.3090122	0.51963305	0.8085359	0.2503999	0.5324739
5.1672294555923435e-09	0.78745365	0.30897713	0.5196536	0.808564	0.25032228	0.5324675
5.18593905326066e-09	0.787477	0.30893993	0.5196669	0.80859995	0.25026298	0.5324408
5.2046144723256325e-09	0.7875034	0.30890653	0.5196732	0.80863476	0.2502343	0.53240156
5.2232996341178215e-09	0.7875303	0.30888152	0.51967436	0.8086605	0.25024056	0.5323595
5.242008003371947e-09	0.7875547	0.30886716	0.5196731	0.80867195	0.25027794	0.5323247
5.260720479692316e-09	0.7875749	0.30886337	0.51967263	0.80866736	0.25033545	0.5323046
5.279433606454818e-09	0.7875898	0.3088674	0.5196756	0.80864906	0.2503985	0.53230286
5.29812018338704e-09	0.7875999	0.30887493	0.51968384	0.8086222	0.25045186	0.5323185
5.316814965840062e-09	0.7876067	0.30888137	0.5196978	0.80859375	0.25048414	0.5323466
5.33553498938394e-09	0.78761226	0.3088825	0.51971644	0.8085701	0.2504893	0.53238
5.35427642847053e-09	0.7876189	0.30887562	0.51973784	0.8085567	0.25046805	0.5324103
5.3729976862688395e-09	0.7876285	0.30886018	0.5197597	0.8085558	0.25042725	0.53243095
5.391701058965819e-09	0.7876418	0.30883762	0.5197794	0.80856645	0.2503777	0.5324377
5.410408015387169e-09	0.78765917	0.30881086	0.5197954	0.80858594	0.25033158	0.53243005
5.429127016984855e-09	0.7876797	0.30878347	0.519807	0.80860853	0.2502992	0.5324108