# t (s)	mx ()	my ()	mz ()	m.region1x ()	m.region1y ()	m.region1z ()
0	0	1	0	0	1	0
1.023e-12	-0.024331369	0.99957365	0.01572727	-0.060601447	0.99794143	0.020987926
2.047e-12	-0.048067395	0.9983195	0.031546623	-0.11984688	0.99185	0.043247305
4.095e-12	-0.09359747	0.9934897	0.0633556	-0.23252231	0.9683559	0.09066577
8.191e-12	-0.17645729	0.97565484	0.12726472	-0.4266289	0.8840135	0.19106996
1.4392912780914272e-11	-0.2801755	0.9324766	0.22328609	-0.6283728	0.7019546	0.3352648
2.0464910243047375e-11	-0.35653132	0.87750757	0.31458336	-0.7322023	0.5129366	0.44806093
2.6782727044769933e-11	-0.41138014	0.8127685	0.40513325	-0.7768166	0.33865234	0.5308857
3.376927286706874e-11	-0.44637272	0.73717225	0.4987033	-0.78831786	0.18248004	0.5875504
4.115266746376477e-11	-0.45893186	0.65632486	0.5891601	-0.78477633	0.05305669	0.61746603
4.883301051155989e-11	-0.45091408	0.57311726	0.67348224	-0.7786418	-0.055193923	0.6249924
5.6592189781732375e-11	-0.42637134	0.4903379	0.7482397	-0.77458835	-0.14861876	0.61470366
6.444842849638673e-11	-0.38957563	0.40715092	0.81306624	-0.7722384	-0.23442522	0.59044147
7.252792097897127e-11	-0.34364676	0.32103604	0.8681543	-0.76949733	-0.3172521	0.55421305
8.094578656427269e-11	-0.29122233	0.22934577	0.91281915	-0.7641884	-0.39880645	0.5068536
8.968326366752025e-11	-0.2356785	0.13095438	0.9451129	-0.75473547	-0.4779039	0.4493545
9.860162866835782e-11	-0.1809653	0.026722588	0.9629264	-0.74045706	-0.5519088	0.3834862
1.0769388559815692e-10	-0.1294305	-0.08298237	0.9650018	-0.7209656	-0.6196512	0.3101359
1.1712965536378468e-10	-0.08132679	-0.19891477	0.94980526	-0.69529605	-0.681376	0.22854692
1.2599141529810343e-10	-0.04033876	-0.30748406	0.91953075	-0.66577685	-0.7313309	0.1477883
1.3451275413352027e-10	-0.0026281928	-0.4091046	0.8761542	-0.6319545	-0.7720675	0.06703513
1.4299027440720184e-10	0.03638433	-0.50482434	0.81972605	-0.5924381	-0.80542874	-0.015968144
1.5150997969183266e-10	0.08105026	-0.5926178	0.75054836	-0.5461569	-0.83140546	-0.10216153
1.5988146622938587e-10	0.13448411	-0.6672663	0.6715257	-0.4935233	-0.84866047	-0.19019988
1.6802881776217703e-10	0.1993475	-0.7249159	0.58547413	-0.43475938	-0.8558378	-0.2801751
1.7605603672475347e-10	0.27841198	-0.7625529	0.493546	-0.36907995	-0.8506366	-0.37439898
1.839010643215426e-10	0.3712926	-0.77553093	0.39889443	-0.29758972	-0.8291125	-0.47327834
1.916768533883716e-10	0.47735327	-0.7591402	0.3029285	-0.22129917	-0.78478646	-0.5788896
1.9943007877791594e-10	0.59276855	-0.70768815	0.20828637	-0.14469555	-0.7079724	-0.691231
2.07021208019085e-10	0.70768386	-0.6184328	0.12037929	-0.079568334	-0.58913064	-0.80406594
2.1440709159133174e-10	0.81126493	-0.49246192	0.043447442	-0.04398918	-0.4209402	-0.90594256
2.2176385585001152e-10	0.8946295	-0.33039623	-0.02049214	-0.063583314	-0.19942397	-0.9777044
2.2917856446647165e-10	0.9467408	-0.13699868	-0.06795197	-0.16935855	0.056665607	-0.9836563
2.358032747578523e-10	0.95840883	0.05144126	-0.09303753	-0.34379566	0.26572838	-0.9002129
2.4205962354176653e-10	0.9359782	0.23229516	-0.10012327	-0.5500432	0.39411274	-0.73560894
2.485836428551316e-10	0.87888336	0.41242298	-0.08977735	-0.75379217	0.42594874	-0.49934676
2.555624018270739e-10	0.78547394	0.5835212	-0.0593307	-0.90572834	0.3576187	-0.22549051
2.621800531249082e-10	0.6751881	0.71644807	-0.013786591	-0.9708309	0.23749435	0.011416518
2.6901571908543456e-10	0.55049187	0.8190288	0.047425926	-0.97132957	0.10071316	0.21268827
2.7645402333253096e-10	0.41556385	0.8901698	0.12632683	-0.9234615	-0.029648554	0.3808974
2.841089336992993e-10	0.28989854	0.9235872	0.21610111	-0.851051	-0.12649335	0.5085927
2.919641542257793e-10	0.18399024	0.9235916	0.31237477	-0.7763877	-0.18337677	0.6025359
2.9975229806950845e-10	0.106567696	0.89776736	0.40779442	-0.7183988	-0.20464046	0.6647687
3.0772883485973686e-10	0.0564355	0.85238445	0.5020613	-0.68515384	-0.20524819	0.6988723
3.1548813764358003e-10	0.03400351	0.795411	0.58791727	-0.67961895	-0.20321997	0.7046931
3.2269941681153176e-10	0.03343104	0.73423237	0.6609521	-0.6926962	-0.21275368	0.6888002
3.2948850228985364e-10	0.04771719	0.67085874	0.7227502	-0.71288896	-0.23828378	0.65911746
3.362117562318871e-10	0.073125176	0.6032266	0.7765582	-0.73275995	-0.27981937	0.6198378
3.430868773681937e-10	0.1077705	0.52933156	0.82334805	-0.7473918	-0.33531356	0.5731524
3.500788430359496e-10	0.14906701	0.44944856	0.8618259	-0.75371337	-0.39952043	0.5215181
3.5724251235294065e-10	0.19485758	0.3629682	0.89120525	-0.7511987	-0.46761233	0.4656936
3.6457040268677976e-10	0.24268992	0.27031744	0.9102969	-0.7407888	-0.5351408	0.40594336
3.7177850143277274e-10	0.2886179	0.17616265	0.9179616	-0.7246853	-0.5968409	0.34435838
3.789976246530539e-10	0.3320747	0.08045146	0.9144711	-0.7041	-0.6527493	0.27951065
3.8633852019104347e-10	0.3729763	-0.016251476	0.89956397	-0.6792618	-0.7031533	0.2100639
3.9378835433214327e-10	0.411236	-0.11124304	0.8730943	-0.6500869	-0.74755335	0.13598925
4.01284005351434e-10	0.44738853	-0.20083085	0.8355945	-0.6163689	-0.7852807	0.058085993
4.088702184330637e-10	0.48324594	-0.2824247	0.78752095	-0.5772889	-0.8161713	-0.02379809
4.1662697608067575e-10	0.5212995	-0.3533029	0.72916937	-0.5316427	-0.83972704	-0.11040022
4.241781328021636e-10	0.5617893	-0.4071374	0.66499794	-0.4812106	-0.85402715	-0.19760332
4.315122323111281e-10	0.6059182	-0.4423741	0.5974152	-0.42619878	-0.85834527	-0.2855955
4.387490344544501e-10	0.6548006	-0.45816848	0.5274754	-0.36592156	-0.85106146	-0.37650722
4.4585026418783226e-10	0.70756006	-0.4531231	0.4576298	-0.30127972	-0.829281	-0.47062442
4.529150679017636e-10	0.76320547	-0.426085	0.38900575	-0.23290223	-0.78815824	-0.5696807
4.599462860643172e-10	0.8189309	-0.3762058	0.32374758	-0.16421947	-0.7210276	-0.6731552
4.669304091677828e-10	0.8707641	-0.30383724	0.26418933	-0.10241908	-0.619871	-0.77799016
4.73847271830408e-10	0.9141036	-0.2109944	0.21260622	-0.060151827	-0.4771406	-0.87676334
4.806177223959329e-10	0.94430006	-0.10250547	0.17127673	-0.056059122	-0.29205298	-0.9547341
4.872756504297129e-10	0.9583707	0.01692535	0.14116226	-0.1106495	-0.073906645	-0.99102634
4.939278400314531e-10	0.9543394	0.14337593	0.12276728	-0.23937905	0.15101355	-0.95890313
5.004380680329757e-10	0.9319747	0.26795596	0.11679755	-0.42884722	0.32979977	-0.84058636
5.068266034779512e-10	0.8931968	0.38511086	0.122641295	-0.6365099	0.4208963	-0.64546466
5.13511569476362e-10	0.83750796	0.49661767	0.14069489	-0.8211405	0.41204315	-0.39316994
5.202977542603063e-10	0.76958466	0.59348404	0.17040674	-0.9368478	0.31990314	-0.13527042
5.269767390735946e-10	0.696794	0.6697307	0.20926082	-0.9768475	0.19005284	0.08700886
5.339053008559552e-10	0.62076795	0.7275212	0.25760528	-0.95950365	0.052016076	0.2724493
5.408776379095896e-10	0.54904294	0.7641755	0.31223425	-0.90574837	-0.06710944	0.4155892
5.479825620544681e-10	0.48528677	0.7810867	0.37167358	-0.8350951	-0.1574305	0.52530026
5.552366876590309e-10	0.43301713	0.77969646	0.43391332	-0.7632973	-0.21575384	0.6080893
5.625108404559656e-10	0.39522874	0.7622967	0.4957185	-0.7037368	-0.24486437	0.6666815
5.698523236719861e-10	0.3721837	0.73127556	0.5555523	-0.6639561	-0.25432712	0.70312166
5.773411923295221e-10	0.36339983	0.6881625	0.61226034	-0.6472077	-0.25667506	0.71752334
5.846829985937074e-10	0.3675502	0.6365832	0.66223264	-0.6512275	-0.26470256	0.7105939
5.915048812290243e-10	0.38086802	0.5817237	0.70269233	-0.6665931	-0.28513828	0.68785083
5.981873405136222e-10	0.40090063	0.52252305	0.7360234	-0.68529654	-0.31981933	0.65330243
6.049693644365155e-10	0.4264621	0.45785528	0.7629061	-0.7018628	-0.3682458	0.60881084
6.11896336572347e-10	0.4561945	0.3880775	0.7826908	-0.71226597	-0.42720762	0.5561695
6.190181429940801e-10	0.48886392	0.31367686	0.7946257	-0.7144717	-0.4925082	0.4964331
6.263254319404928e-10	0.523106	0.23612204	0.79785466	-0.7081096	-0.55948055	0.4304729
6.336409851977667e-10	0.5570381	0.15911883	0.7919909	-0.6942729	-0.6229311	0.3603209
6.409430005696173e-10	0.58997214	0.08497955	0.7773449	-0.67429924	-0.6805843	0.2864565
6.483769016870339e-10	0.62242794	0.014574548	0.75394857	-0.6484821	-0.73235047	0.2075052
6.559482172843304e-10	0.6546728	-0.049440674	0.72214055	-0.6168153	-0.7773055	0.123484105
6.635669446054109e-10	0.68687165	-0.10357854	0.6831071	-0.57938385	-0.81422484	0.03565515
6.712433136887072e-10	0.71969914	-0.14536251	0.63801926	-0.53571254	-0.8425206	-0.05576916
6.790843263828051e-10	0.75407094	-0.17264786	0.58765507	-0.48456603	-0.86142623	-0.15199077
6.867144460089991e-10	0.7882929	-0.18253782	0.53625697	-0.4281914	-0.8688081	-0.2485893
6.94073146822471e-10	0.8213839	-0.17538427	0.48623648	-0.36764497	-0.86352277	-0.34516418
7.013258267265371e-10	0.8528573	-0.1518154	0.4382495	-0.3025205	-0.8431236	-0.4445155
7.085690616242667e-10	0.88140714	-0.11214118	0.39334875	-0.23358914	-0.8027655	-0.54861194
7.157693346421416e-10	0.9048188	-0.0577677	0.35336304	-0.16475809	-0.73588127	-0.6567448
7.227890822179729e-10	0.92074406	0.0077209813	0.32030013	-0.10431883	-0.6364213	-0.76425016
7.297538868306292e-10	0.927945	0.08225874	0.2944902	-0.06317203	-0.49555764	-0.8662741
7.366993168400642e-10	0.92525464	0.16281477	0.27662173	-0.060035087	-0.30841005	-0.9493436
7.435569717999487e-10	0.91234994	0.24482632	0.26727673	-0.11760776	-0.08550991	-0.98930955
7.503393344626595e-10	0.8898634	0.32468906	0.2663599	-0.25023633	0.14229277	-0.957494
7.568896792598677e-10	0.8600359	0.39740154	0.27319485	-0.44051266	0.32051766	-0.8381895
7.633367204956042e-10	0.8245472	0.4620777	0.28689522	-0.64725995	0.4113806	-0.6409763
7.702312142060805e-10	0.78219175	0.52140164	0.3084254	-0.83217996	0.40134957	-0.38100153
7.770649924108871e-10	0.7383744	0.56859255	0.33573693	-0.9423239	0.30876833	-0.12320329
7.837655753158879e-10	0.696206	0.60287064	0.36710212	-0.97792625	0.18007615	0.09680992
7.907063211877669e-10	0.6557555	0.62577367	0.40304685	-0.9581126	0.043383323	0.27925572
7.97725956119386e-10	0.6202003	0.63639396	0.441567	-0.9031229	-0.0759756	0.42009664
8.048576176338588e-10	0.59107673	0.6352148	0.48149958	-0.83212197	-0.16748011	0.52715534
8.121787571484811e-10	0.569394	0.6227215	0.521904	-0.7597025	-0.22873724	0.6079941
8.196588655604459e-10	0.55606574	0.59960634	0.56119704	-0.6982425	-0.26234826	0.6658586
8.272170168374652e-10	0.55127347	0.56714106	0.5976031	-0.656672	-0.27696043	0.7013728
8.348402469466135e-10	0.55438495	0.52663285	0.6298681	-0.6381218	-0.2855053	0.7146891
8.422171653807375e-10	0.56384426	0.481404	0.65597737	-0.6393735	-0.3000881	0.7072449
8.491317596441215e-10	0.57734567	0.4348263	0.67530465	-0.651292	-0.32648548	0.68412966
8.559426518937731e-10	0.5939932	0.38610995	0.6890908	-0.6662652	-0.36644244	0.6485543
8.627642661356591e-10	0.6130603	0.3356291	0.6974411	-0.678828	-0.41839525	0.6026118
8.696999886440523e-10	0.634063	0.28379974	0.7002332	-0.6855005	-0.4792394	0.54746103
8.768332352228117e-10	0.65664196	0.23133892	0.6971612	-0.68445575	-0.54520804	0.48359215
8.841372878013236e-10	0.68021977	0.18003522	0.68799245	-0.6752236	-0.611699	0.41195342
8.913581449099055e-10	0.7036099	0.133265	0.6733312	-0.65886843	-0.67310095	0.33575344
8.986021694803253e-10	0.7269411	0.091807045	0.6535911	-0.63610303	-0.72835684	0.25451982
9.0599222442738e-10	0.75048256	0.05662334	0.6289991	-0.6068182	-0.77697563	0.16723536
9.135137067824557e-10	0.7740623	0.029564045	0.600277	-0.5708332	-0.81760997	0.07440182
9.210098679662344e-10	0.79699236	0.012530826	0.5690132	-0.5286149	-0.8485185	-0.021536453
9.285106588423504e-10	0.8190179	0.0062521147	0.53626555	-0.4798019	-0.8690131	-0.12046969
9.36118470070406e-10	0.83984125	0.011338871	0.5028216	-0.42346436	-0.8778409	-0.22362201
9.435574534471482e-10	0.8579443	0.027450643	0.47114965	-0.36189952	-0.8727869	-0.3274484
9.507352706651245e-10	0.87241215	0.052950293	0.44268963	-0.29710546	-0.85203195	-0.430961
9.577969706334196e-10	0.88287723	0.08666337	0.41769928	-0.22979203	-0.81197095	-0.5365257
9.648438605086937e-10	0.88876843	0.12751567	0.3966001	-0.1624504	-0.74635446	-0.6453941
9.71909604953114e-10	0.88944757	0.17401181	0.38001162	-0.101395264	-0.64672434	-0.755943
9.788225154215656e-10	0.88467026	0.22295007	0.36872506	-0.059481904	-0.507975	-0.8593143
9.85679993349743e-10	0.87458235	0.27284846	0.36266756	-0.053194392	-0.32493085	-0.94423676
9.92563271502478e-10	0.8594358	0.3222573	0.361834	-0.10509272	-0.10194486	-0.9891865
9.99391506433914e-10	0.8401265	0.3686993	0.3660952	-0.23172854	0.13016719	-0.963902
1.0059969240413023e-09	0.818311	0.40961128	0.37476015	-0.4189614	0.316761	-0.85064423
1.0124432734293295e-09	0.79508936	0.4445301	0.387116	-0.62557167	0.41673383	-0.6589057
1.0193307852989173e-09	0.7694134	0.4753943	0.4039927	-0.8153571	0.4154955	-0.40184316
1.0262614677205298e-09	0.74398774	0.49906856	0.42408517	-0.9344071	0.32554728	-0.13994335
1.032959833119793e-09	0.72097284	0.51461256	0.44570544	-0.9764211	0.19569886	0.081622064
1.0399472533575932e-09	0.6996341	0.5231475	0.4697293	-0.96124053	0.05291197	0.26694167
1.0469641989564694e-09	0.6817646	0.52410084	0.494506	-0.9084866	-0.07437524	0.40880096
1.0540646071154972e-09	0.6678715	0.51779294	0.5193808	-0.8373221	-0.17543907	0.5162232
1.0613033209028318e-09	0.6583227	0.5045155	0.543696	-0.76221883	-0.24725698	0.5974415
1.068759882479841e-09	0.65335304	0.48446772	0.5668249	-0.6940944	-0.29214165	0.65769243
1.0763627767944853e-09	0.6530913	0.45837307	0.58764654	-0.6425202	-0.31637254	0.6978105
1.0840600209020512e-09	0.65725875	0.4272583	0.6052287	-0.6125885	-0.33101124	0.71744424
1.0917358233798114e-09	0.6651995	0.3927089	0.6187416	-0.6036853	-0.3482169	0.71651417
1.0988795564405295e-09	0.67535424	0.3584755	0.6273935	-0.6088937	-0.3747266	0.69830495
1.1058285636292484e-09	0.6872269	0.32424718	0.63201684	-0.61989874	-0.4132988	0.6661008
1.1126690326803548e-09	0.7003489	0.2905987	0.63287437	-0.6307323	-0.46266365	0.62215513
1.1196095060632768e-09	0.7146832	0.25745186	0.63006496	-0.6375941	-0.520918	0.56688654
1.1267559378698789e-09	0.73012054	0.22535983	0.6234797	-0.6379585	-0.5849062	0.5004345
1.134101019637035e-09	0.7463417	0.19556391	0.61311686	-0.6304591	-0.6502474	0.4236338
1.141414093185506e-09	0.762533	0.17009091	0.5996076	-0.6152463	-0.7111744	0.3399606
1.1487579573980634e-09	0.77854395	0.14960186	0.58337116	-0.5926405	-0.7656597	0.24984668
1.1562697556792096e-09	0.7943628	0.13468133	0.5646433	-0.56223047	-0.8127232	0.15241331
1.1639527650352217e-09	0.8096102	0.12632748	0.5440343	-0.52357435	-0.8505112	0.048277766
1.1714635404693047e-09	0.8232144	0.12524167	0.5232655	-0.4783318	-0.8762312	-0.057027385
1.1789833725113502e-09	0.83510727	0.1312101	0.50266796	-0.4256215	-0.88959706	-0.16529657
1.186622837680683e-09	0.84493256	0.14423232	0.48276195	-0.36468568	-0.8886259	-0.27792153
1.194216108152816e-09	0.8519548	0.16353506	0.46476895	-0.29746783	-0.87021077	-0.39264065
1.2015705724711695e-09	0.8557335	0.1874296	0.44970214	-0.22768523	-0.83146167	-0.506727
1.208818581451781e-09	0.8562516	0.21494624	0.4376498	-0.15771373	-0.7670016	-0.6219275
1.2160656639373694e-09	0.85343975	0.24520487	0.42876923	-0.09298274	-0.6682737	-0.7380667
1.2233075969739564e-09	0.8473333	0.27688807	0.4233219	-0.04531408	-0.52601045	-0.8492676
1.230441343404505e-09	0.83831286	0.30821532	0.42142063	-0.03392459	-0.33678642	-0.9409671
1.2375509936100718e-09	0.8267499	0.33831835	0.42292315	-0.082717285	-0.10488939	-0.99100435
1.2447330734966646e-09	0.8130207	0.36645144	0.42772713	-0.21397161	0.1431585	-0.9661627
1.2513206225299646e-09	0.7992027	0.38939348	0.43479863	-0.40161523	0.33255693	-0.8529799
1.2577536108916117e-09	0.7851535	0.40854016	0.44387293	-0.6100799	0.43477848	-0.6617769
1.2646999560615096e-09	0.77001214	0.42510474	0.4556873	-0.80536306	0.43367958	-0.40284526
1.2717542108412652e-09	0.7553346	0.4372154	0.46934825	-0.9301783	0.3386091	-0.13743603
1.278436695511688e-09	0.7426401	0.44416142	0.48335326	-0.97489274	0.20355245	0.08135949
1.2854405435015986e-09	0.73108125	0.44672963	0.49862596	-0.96203053	0.053128943	0.26415876
1.2928664255046424e-09	0.7211877	0.4443723	0.5149015	-0.90663505	-0.090099365	0.40970978
1.3003271849492853e-09	0.71397424	0.43709412	0.5307415	-0.83031166	-0.20438513	0.5168151
1.3078992054632405e-09	0.7095696	0.42518604	0.54571456	-0.74888	-0.28722447	0.5963734
1.3154142552496765e-09	0.70806813	0.40948337	0.55896384	-0.6758921	-0.340149	0.65354276
1.3230505446601975e-09	0.7093009	0.39028674	0.57033867	-0.61763644	-0.37208992	0.6928053
1.3307421619014852e-09	0.71307456	0.36845487	0.57930905	-0.57933664	-0.3927621	0.71395075
1.338461068501877e-09	0.71906245	0.34489343	0.5855419	-0.5613148	-0.41315925	0.71644413
1.3458606804855005e-09	0.72650874	0.32158402	0.5887725	-0.55921304	-0.44062245	0.70128417
1.3529471203276938e-09	0.73487324	0.29934615	0.58931273	-0.5653931	-0.47788277	0.6712179
1.3598884003199626e-09	0.7439389	0.27831894	0.5874672	-0.57372934	-0.524655	0.62793875
1.3669155181414192e-09	0.75371563	0.25843555	0.58332527	-0.5800508	-0.57972574	0.5714016
1.374166309063164e-09	0.7641548	0.24003771	0.57685465	-0.5812462	-0.6405879	0.50118047
1.381652087730526e-09	0.7750169	0.22392689	0.5681259	-0.57504916	-0.70312667	0.41783544
1.3891990075040214e-09	0.78576314	0.21120924	0.557595	-0.56047916	-0.7617887	0.32455903
1.396801479446685e-09	0.7960874	0.20242482	0.5456746	-0.5372182	-0.8133106	0.22304322
1.4046112860938994e-09	0.8058601	0.19792242	0.5325745	-0.50434864	-0.8560072	0.11261375
1.412456007856701e-09	0.8145082	0.19814733	0.51910377	-0.46216205	-0.8866606	-0.0030251348
1.420169884734494e-09	0.82156485	0.20293996	0.50610644	-0.41176426	-0.90320814	-0.12014203
1.4279331863111564e-09	0.82693326	0.21206783	0.49380904	-0.35240686	-0.904263	-0.24064746
1.4358462748426932e-09	0.83036435	0.22533002	0.48259252	-0.2838298	-0.8862227	-0.3659001
1.4436930363085813e-09	0.8315495	0.24175668	0.47322866	-0.20970121	-0.84457207	-0.49254304
1.4514197392020739e-09	0.8304729	0.26032305	0.46606773	-0.13468781	-0.7734577	-0.6193044
1.4590842816432687e-09	0.82723045	0.28021398	0.46122634	-0.06600165	-0.6639105	-0.74486303
1.4666778399674478e-09	0.82202005	0.30047652	0.45878595	-0.017682865	-0.50635624	-0.86213636
1.4742109458311864e-09	0.81513023	0.3202579	0.45871258	-0.012198351	-0.2950864	-0.9553915
1.4817583769018036e-09	0.8068465	0.33894432	0.46091577	-0.07936747	-0.037910856	-0.9960872
1.488882409917226e-09	0.7981307	0.35488722	0.46494377	-0.22897604	0.20884128	-0.95061517
1.495348531475388e-09	0.7897971	0.36748707	0.4700674	-0.4257633	0.38295853	-0.81943506
1.5018025315532004e-09	0.78138876	0.37796885	0.47637865	-0.6377269	0.4652339	-0.61316574
1.5088701963384433e-09	0.7724256	0.38678253	0.4844005	-0.82869136	0.4395427	-0.34492368
1.5157983192177066e-09	0.7642212	0.39254943	0.49309304	-0.9395895	0.32816917	-0.09029629
1.5224539748192874e-09	0.7571555	0.3953474	0.5019227	-0.97518635	0.18343298	0.116971426
1.5295180401752263e-09	0.7507693	0.3954063	0.5114893	-0.9559655	0.025289698	0.2887773
1.5371008409305507e-09	0.7453978	0.3922738	0.5216136	-0.8954531	-0.12544121	0.42446202
1.544630348022799e-09	0.7417228	0.3861403	0.53114754	-0.8162631	-0.24469577	0.52146035
1.5520626048196924e-09	0.739771	0.37746996	0.5397154	-0.73462915	-0.33106884	0.5912053
1.5595685498888637e-09	0.7394669	0.36648977	0.5472257	-0.65895003	-0.3904896	0.6425465
1.5670830562026604e-09	0.7407507	0.35373244	0.5533525	-0.59678376	-0.4289928	0.6780303
1.5746655223610566e-09	0.74350965	0.3395957	0.55793643	-0.55176604	-0.45553476	0.69836336
1.582411767777308e-09	0.7476494	0.3244199	0.56083465	-0.52486384	-0.4796136	0.7025094
1.5899707973295645e-09	0.75275636	0.30946836	0.5618689	-0.5145282	-0.5080138	0.68966454
1.5972410527451476e-09	0.7584465	0.2954738	0.5612045	-0.51467395	-0.54407525	0.6612973
1.6043299103588599e-09	0.76452607	0.28264734	0.559056	-0.5192562	-0.5881176	0.6187232
1.6114861195805624e-09	0.7709953	0.27093312	0.5554985	-0.523787	-0.63955903	0.56148803
1.6188773069158986e-09	0.77781814	0.26052696	0.5505273	-0.5246827	-0.6964742	0.48857632
1.6265471337005006e-09	0.78482515	0.2519102	0.54420584	-0.51887995	-0.75514674	0.3999542
1.6342830379239547e-09	0.7915867	0.24576688	0.5369134	-0.5044918	-0.80961514	0.29947466
1.6422057939566221e-09	0.79795873	0.24233417	0.5288232	-0.48003554	-0.8568355	0.18749249
1.6502341794921626e-09	0.803614	0.24189684	0.5203508	-0.4448198	-0.89296484	0.067037195
1.6583370890588005e-09	0.8082869	0.2445133	0.51190346	-0.39850646	-0.9150722	-0.05958264
1.6663591447172858e-09	0.8117049	0.24994507	0.50401115	-0.342205	-0.92038345	-0.18840282
1.6744771436735584e-09	0.8137962	0.2579987	0.496845	-0.2754251	-0.90587395	-0.32134184
1.6827806289903183e-09	0.8144206	0.2684366	0.49068114	-0.19885509	-0.8654649	-0.4595652
1.6909222506735416e-09	0.81352407	0.28028002	0.48602873	-0.119761735	-0.7933141	-0.5967756
1.69897606890066e-09	0.811221	0.2929638	0.482951	-0.045812625	-0.679792	-0.73190093
1.7070504154730353e-09	0.8076258	0.30602467	0.48147893	0.00817354	-0.5113155	-0.85933
1.7149681098080494e-09	0.80303884	0.31857386	0.48161882	0.014914871	-0.2845711	-0.9585383
1.7228444660345256e-09	0.797671	0.33025968	0.4832584	-0.059050363	-0.0093144765	-0.99818707
1.7299004840180235e-09	0.79240483	0.33965722	0.48590267	-0.21404427	0.23870784	-0.94707507
1.7363091107354903e-09	0.7874334	0.3470571	0.4891609	-0.4149144	0.41066507	-0.8115586
1.742736461741296e-09	0.78243685	0.35320842	0.49312824	-0.630504	0.48861873	-0.6023441
1.7497935248039475e-09	0.77712893	0.35834104	0.4981314	-0.82431686	0.45621583	-0.33350024
1.7566907510051623e-09	0.7723021	0.3616162	0.50349474	-0.93673396	0.33820304	-0.08211442
1.7633074855756642e-09	0.76815444	0.36310023	0.5089028	-0.97392523	0.18768138	0.12016
1.770321722587964e-09	0.7644039	0.3629145	0.51472646	-0.95676327	0.023573456	0.28593946
1.7779856011928412e-09	0.7611873	0.360725	0.5209695	-0.897061	-0.13685644	0.41715175
1.7854026651215249e-09	0.7590339	0.35677972	0.5266707	-0.8195095	-0.26287654	0.506989
1.7927214625798095e-09	0.75787413	0.35132802	0.5317711	-0.73812366	-0.35742286	0.5708561
1.8000917280700276e-09	0.7576741	0.34452128	0.53621083	-0.6605609	-0.4258862	0.61772335
1.8074563104314605e-09	0.758407	0.33668476	0.53980976	-0.5935687	-0.47322786	0.65082884
1.8148719012083743e-09	0.76001674	0.32806417	0.54248214	-0.5405812	-0.5068407	0.67133033
1.822424572681374e-09	0.7624543	0.3188757	0.54415137	-0.5031848	-0.5345316	0.6784398
1.8301209571720385e-09	0.76563776	0.30945542	0.5447283	-0.48129106	-0.5634699	0.67027795
1.8376131679452237e-09	0.7692738	0.30057925	0.5442117	-0.47235024	-0.59739935	0.6464459
1.844906687297119e-09	0.77318066	0.29252672	0.5427356	-0.47091442	-0.63775826	0.6077042
1.852193701784774e-09	0.7773046	0.28533325	0.5403826	-0.47212222	-0.68450105	0.5537336
1.859684652369614e-09	0.7816255	0.27907237	0.53716373	-0.47197005	-0.73650676	0.48304525
1.867489684854534e-09	0.7860549	0.27399313	0.5331027	-0.46675107	-0.79091144	0.3945142
1.875353378970296e-09	0.7902791	0.27053723	0.5284701	-0.4536603	-0.8415582	0.29222777
1.8833660390759764e-09	0.79417586	0.2688372	0.52340823	-0.43053305	-0.88479483	0.17723647
1.8915261516068844e-09	0.79756904	0.26902202	0.5181364	-0.39584783	-0.9166857	0.05180945
1.899840473078332e-09	0.80029154	0.2711357	0.5128931	-0.348548	-0.93352246	-0.08201802
1.9082121095885807e-09	0.80217326	0.27506953	0.5079887	-0.28894323	-0.9313284	-0.22089478
1.9166855578261805e-09	0.80312514	0.28064558	0.503635	-0.21753582	-0.90530604	-0.36436367
1.9252465143227323e-09	0.80308455	0.2875737	0.500056	-0.13700826	-0.8481498	-0.5114425
1.9337531336899733e-09	0.80206835	0.29535565	0.49746525	-0.055041194	-0.75063854	-0.6582426
1.9421293830941844e-09	0.8001893	0.30348137	0.49594793	0.014694268	-0.6015701	-0.79859596
1.9505125553979823e-09	0.79755217	0.3116599	0.49549514	0.049186833	-0.38617152	-0.92108774
1.9588092672601558e-09	0.79434776	0.31940854	0.49608326	0.010285372	-0.1073708	-0.99416465
1.966285210719972e-09	0.79109985	0.32580015	0.4974466	-0.11998576	0.16878134	-0.9782721
1.972815265516198e-09	0.78809834	0.3307379	0.49922407	-0.3095871	0.37578243	-0.8732574
1.9791046886840304e-09	0.7851591	0.33479863	0.5013887	-0.5267399	0.4936304	-0.69149077
1.985807789789491e-09	0.7820743	0.33827314	0.50410306	-0.73953235	0.5054193	-0.4434122
1.9929106215965245e-09	0.7789682	0.34091097	0.5073315	-0.8947449	0.40960005	-0.17423621
1.9995077774993816e-09	0.776324	0.34235418	0.5105486	-0.9626818	0.2639833	0.043423355
2.0062458520355787e-09	0.7739399	0.3428144	0.5139438	-0.96957284	0.098539084	0.21915877
2.0136123899771e-09	0.7717738	0.34216654	0.5176566	-0.9286471	-0.07271142	0.36009628
2.0210841667918615e-09	0.77010936	0.34034422	0.52128893	-0.85843897	-0.22077101	0.46004087
2.028371249852545e-09	0.7690443	0.33753675	0.52457654	-0.7785727	-0.3356816	0.52813506
2.0356193280532666e-09	0.7685503	0.3338654	0.52748775	-0.69851875	-0.42239422	0.57644033
2.0429135438187335e-09	0.76861995	0.32944363	0.5299629	-0.62410337	-0.48617113	0.6112273
2.050188364110388e-09	0.76923275	0.3244854	0.5319032	-0.5603956	-0.53205675	0.63463044
2.0575257609336766e-09	0.77035856	0.3191253	0.5332714	-0.5094269	-0.56689143	0.6471352
2.065011345106918e-09	0.7719717	0.31349644	0.53402513	-0.47210786	-0.5972724	0.647529
2.072693417179764e-09	0.77403545	0.30777642	0.5341158	-0.44807422	-0.6290924	0.6336328
2.0802398655484273e-09	0.7763752	0.30242893	0.53354865	-0.4355102	-0.6648929	0.60472155
2.0877028919369203e-09	0.7788984	0.2975993	0.53238934	-0.4298311	-0.7059616	0.56053954
2.095223002097483e-09	0.7815527	0.2933652	0.530682	-0.42665654	-0.7519468	0.50019467
2.1030052665271484e-09	0.7843116	0.2898044	0.5284325	-0.42192504	-0.8015138	0.4216302
2.111009047945319e-09	0.7870494	0.2871392	0.5257191	-0.41181016	-0.8505374	0.32529855
2.1190709550071733e-09	0.7895943	0.2855622	0.52270794	-0.39333487	-0.8935534	0.21479017
2.1273247521781315e-09	0.79187226	0.28513643	0.5194835	-0.36376756	-0.9268234	0.090664074
2.1356955809977743e-09	0.79374945	0.2859144	0.516224	-0.32159626	-0.9456865	-0.04348366
2.1442917995711006e-09	0.7951442	0.2879006	0.5130496	-0.265189	-0.94566685	-0.18715002
2.153055591527653e-09	0.79595464	0.29101822	0.51015073	-0.19482881	-0.920661	-0.33770418
2.1618262935136974e-09	0.7961235	0.29504058	0.50772893	-0.11416161	-0.8633879	-0.4910788
2.1706369818715293e-09	0.7956569	0.29974347	0.5058889	-0.029339014	-0.7625625	-0.6460029
2.179430286029584e-09	0.7946012	0.30482632	0.50471985	0.04493085	-0.60341537	-0.7960187
2.188144208688713e-09	0.79304886	0.30996954	0.5042555	0.080551654	-0.37233156	-0.9245411
2.1967704638024848e-09	0.7911134	0.3149008	0.5044769	0.034028757	-0.07163614	-0.99684536
2.2041259033925595e-09	0.78923476	0.31879538	0.50517714	-0.10436518	0.20675005	-0.9727787
2.2105550611393584e-09	0.78748494	0.32185182	0.50614387	-0.30002907	0.41090968	-0.8607176
2.216784966629543e-09	0.785748	0.32442617	0.5073614	-0.52182204	0.5229745	-0.6734639
2.223464333884255e-09	0.78389823	0.32669652	0.508927	-0.7377164	0.52604175	-0.42199162
2.2304987478547668e-09	0.7820267	0.32848436	0.5108054	-0.8927016	0.42142153	-0.15558457
2.2370384378550285e-09	0.7804093	0.32955843	0.5127014	-0.96046793	0.26938727	0.056960218
2.2437417280364763e-09	0.7789191	0.3300562	0.51473135	-0.9677865	0.09825697	0.22690725
2.2510715748422247e-09	0.7775288	0.32990456	0.516977	-0.9277636	-0.07830481	0.36103958
2.258540534430133e-09	0.77641046	0.32902947	0.5192115	-0.85831153	-0.2321188	0.454469
2.265803174012405e-09	0.77564216	0.32753173	0.5212554	-0.7791499	-0.35227785	0.5161301
2.2730025585098384e-09	0.7752095	0.32548797	0.52308816	-0.69943315	-0.44427204	0.55840516
2.2802608691402344e-09	0.7751108	0.322953	0.524682	-0.62408274	-0.51385903	0.58801925
2.287470396540738e-09	0.7753423	0.32006624	0.5259644	-0.558138	-0.56525046	0.60729617
2.294711575457248e-09	0.7758877	0.31691054	0.5269142	-0.50323546	-0.60479355	0.6170324
2.3020617831572143e-09	0.7767327	0.3135679	0.52750736	-0.46020812	-0.6382992	0.61630845
2.3095889917597204e-09	0.77786106	0.31013107	0.527717	-0.42896584	-0.67097247	0.6031883
2.31722796307896e-09	0.77922606	0.30676413	0.5275229	-0.40841937	-0.70636344	0.5757175
2.3248868768597527e-09	0.7807573	0.30364	0.5269378	-0.39574206	-0.7458812	0.532815
2.3325838838825258e-09	0.7823945	0.3008713	0.525992	-0.38705406	-0.78919196	0.47367445
2.3405122513007193e-09	0.78411305	0.29851282	0.5246954	-0.37821618	-0.8352115	0.39613736
2.3486738904333207e-09	0.7858401	0.2966954	0.5230882	-0.36520386	-0.88033	0.29984877
2.356896191943707e-09	0.7874614	0.29555184	0.5212723	-0.34460363	-0.9191091	0.18812525
2.365270940402709e-09	0.78891844	0.29512563	0.51931274	-0.31323022	-0.9472961	0.0621135
2.373781629105352e-09	0.7901346	0.2954496	0.51730704	-0.26891768	-0.95998055	-0.07533279
2.3825401795865113e-09	0.79105484	0.2965338	0.5153315	-0.20963714	-0.9516547	-0.22364692
2.391538684358054e-09	0.79161304	0.2983516	0.51349837	-0.13525894	-0.9144733	-0.38085294
2.4005270668990866e-09	0.79176325	0.30075315	0.5119574	-0.051057138	-0.839367	-0.54079753
2.4095955073172437e-09	0.79151046	0.303613	0.5107704	0.03459259	-0.7112715	-0.701816
2.41875234640367e-09	0.7908749	0.30676833	0.5099984	0.1006663	-0.5097823	-0.8542482
2.4278723699602013e-09	0.78991395	0.30999333	0.50968266	0.10481266	-0.2227494	-0.9691732
2.4359359555926654e-09	0.78884494	0.31276715	0.50978297	0.009383852	0.08689378	-0.9961672
2.442687041588072e-09	0.7878323	0.31494185	0.5101311	-0.16317134	0.33752018	-0.92701393
2.448869296807248e-09	0.7868433	0.31675604	0.5106469	-0.3785777	0.5026293	-0.7769668
2.455152949008147e-09	0.7858087	0.31838012	0.5113444	-0.60675573	0.56607616	-0.5574012
2.4621139426976987e-09	0.7846646	0.31987673	0.51229095	-0.80987704	0.5114329	-0.28548184
2.4688269631222914e-09	0.783597	0.32098567	0.5133422	-0.92584467	0.37344155	-0.044322476
2.475309875599358e-09	0.7826274	0.32172355	0.5144518	-0.9669534	0.20561966	0.14430532
2.4821939698755823e-09	0.7816899	0.32213563	0.51569366	-0.9543756	0.025014127	0.29328582
2.4898379524786102e-09	0.78078985	0.32214156	0.51710105	-0.89866173	-0.15518497	0.40662295