# t (s)	mx ()	my ()	mz ()	m.region1x ()	m.region1y ()	m.region1z ()
0	0	1	0	0	1	0
1.023e-12	-0.017043483	0.999791	0.010997324	-0.053390518	0.9984461	0.015964258
2.047e-12	-0.0336975	0.9991761	0.022038782	-0.10575213	0.99383926	0.03316758
4.095e-12	-0.06575702	0.99680585	0.04419952	-0.20603442	0.9759909	0.07065201
8.191e-12	-0.12472765	0.98802817	0.08868592	-0.3824553	0.9111344	0.15349841
1.463181733132848e-11	-0.20320486	0.96566194	0.15847254	-0.58151066	0.761678	0.28581005
2.118315517347719e-11	-0.26522797	0.9356413	0.22839382	-0.6944351	0.5972321	0.4013171
2.78718976084874e-11	-0.31086397	0.9007703	0.2979059	-0.74704516	0.44882554	0.4903496
3.496831174645723e-11	-0.3412613	0.86187136	0.36897597	-0.7663758	0.32320115	0.5551201
4.237230125757849e-11	-0.35522872	0.8212137	0.43973854	-0.77046275	0.22307193	0.5971303
5.0007113387729956e-11	-0.35296768	0.7803476	0.5087797	-0.7708557	0.14310671	0.620667
5.7715553316877274e-11	-0.3358537	0.7404174	0.5742466	-0.7724993	0.07663795	0.6303016
6.552213854567985e-11	-0.30558053	0.700824	0.6360598	-0.7760805	0.01678154	0.63032454
7.349610310297353e-11	-0.26340812	0.6601444	0.69438076	-0.7805414	-0.040866785	0.6236689
8.170499164588183e-11	-0.21037675	0.6164304	0.7491133	-0.78456426	-0.098483846	0.61206985
9.018769052149422e-11	-0.1478001	0.5673831	0.79968244	-0.78723353	-0.15669882	0.59629977
9.894284712725768e-11	-0.07775153	0.51058435	0.8450115	-0.78822976	-0.21526982	0.5763781
1.0797141634668268e-10	-0.0029920512	0.44356844	0.88381195	-0.78771114	-0.27386186	0.5516882
1.1727125385674197e-10	0.0729333	0.36426744	0.91456604	-0.78602624	-0.33215296	0.52122116
1.268653441245557e-10	0.14602338	0.27123886	0.93564504	-0.78345203	-0.38989243	0.48373935
1.366159162714918e-10	0.21093224	0.16613284	0.9452046	-0.7801018	-0.44565165	0.43890244
1.4634499743120304e-10	0.2632608	0.053219803	0.94228464	-0.7758764	-0.49768364	0.38743767
1.5615328176473287e-10	0.30188727	-0.06496502	0.9265723	-0.7703488	-0.5457151	0.32941902
1.6581208223263973e-10	0.32635057	-0.1813316	0.8988285	-0.76317024	-0.5880086	0.2674907
1.7559234686487033e-10	0.33954188	-0.2948234	0.8590139	-0.753649	-0.62536395	0.20159675
1.8525959745638386e-10	0.34478253	-0.3989997	0.8090917	-0.7416392	-0.65681636	0.13509071
1.9465023833541426e-10	0.34686667	-0.489834	0.7517324	-0.7273223	-0.6824051	0.07069302
2.0371263303167492e-10	0.3504752	-0.5659852	0.68929404	-0.7110076	-0.70288146	0.009722841
2.127388646394528e-10	0.35975158	-0.6292765	0.6213684	-0.69235146	-0.71963936	-0.049445994
2.218044039303285e-10	0.37841967	-0.67901176	0.54855585	-0.6711699	-0.7332629	-0.10747992
2.3091152190576564e-10	0.40952098	-0.7135269	0.471968	-0.6472324	-0.7440158	-0.16509342
2.402714301897422e-10	0.45630768	-0.7306977	0.39097795	-0.619411	-0.7520349	-0.22480464
2.494733149068612e-10	0.5173528	-0.7265893	0.31055886	-0.5882263	-0.7565013	-0.28548324
2.583355961742522e-10	0.58885586	-0.69965094	0.23393847	-0.55393624	-0.7565938	-0.34722352
2.671036788363685e-10	0.6685651	-0.6474754	0.16072005	-0.5154766	-0.75085294	-0.41277033
2.755579956365873e-10	0.7488748	-0.57050586	0.09450057	-0.47427648	-0.73721015	-0.48112243
2.840884602397125e-10	0.8266269	-0.4649848	0.034230843	-0.42978287	-0.711568	-0.5557506
2.923727141817173e-10	0.8914182	-0.33648694	-0.015766354	-0.38647228	-0.6702899	-0.6334322
3.005210957114728e-10	0.9373672	-0.1883484	-0.054609075	-0.34868324	-0.60801005	-0.7131525
3.0872046109879656e-10	0.9593067	-0.023490876	-0.08145509	-0.32361877	-0.5173166	-0.792095
3.167509066909951e-10	0.952988	0.1452871	-0.09445885	-0.32324362	-0.39691883	-0.8588344
3.2444924631524457e-10	0.920026	0.30533952	-0.09389162	-0.3580894	-0.2538151	-0.8982189
3.322320725385512e-10	0.8619096	0.4570581	-0.08035658	-0.43802637	-0.09383593	-0.8936226
3.4021039808572304e-10	0.7813893	0.59463733	-0.053686287	-0.5642997	0.060122713	-0.8228054
3.480866406033954e-10	0.6880551	0.70745736	-0.016020587	-0.71117425	0.17097048	-0.6812011
3.5609580959434503e-10	0.5870862	0.79622364	0.031936485	-0.8475238	0.22222583	-0.4811498
3.6427894454310075e-10	0.48572636	0.8600401	0.08872132	-0.9428649	0.21522585	-0.25308764
3.7233384654529406e-10	0.3944958	0.8986151	0.14999723	-0.9839827	0.17247753	-0.038093865
3.804298143727244e-10	0.31629282	0.9167037	0.21478918	-0.9813366	0.119681075	0.14844593
3.8875251720070736e-10	0.25318754	0.9178189	0.2827243	-0.9503276	0.07549912	0.30099142
3.9713510539495625e-10	0.20879802	0.9050009	0.35074255	-0.90915537	0.051766396	0.41276625
4.0550178274710105e-10	0.1836668	0.8814889	0.41676393	-0.8741131	0.04825279	0.4831774
4.1380070111361007e-10	0.17660373	0.84981996	0.47923928	-0.855539	0.05445101	0.5148396
4.2177664445930125e-10	0.18495812	0.812762	0.5355687	-0.85538715	0.055040047	0.5149835
4.2971069689249557e-10	0.20603967	0.7699546	0.5872651	-0.8678957	0.038053818	0.49510533
4.370461737391533e-10	0.23497435	0.72513396	0.6306609	-0.88311315	0.002357644	0.4688759
4.4411394270537443e-10	0.26965797	0.67702943	0.668027	-0.89456964	-0.04764742	0.44404167
4.511614300846251e-10	0.30914888	0.62407386	0.70054597	-0.8992574	-0.10644956	0.42393202
4.58232654875796e-10	0.35194117	0.56583107	0.7280494	-0.8967138	-0.16741507	0.40947816
4.650505221124555e-10	0.39458117	0.5048939	0.7493904	-0.88903475	-0.22295551	0.39976692
4.717298457178016e-10	0.4362252	0.4409115	0.7651111	-0.87887263	-0.27173793	0.39207494
4.783714385884942e-10	0.4762498	0.37357664	0.7754541	-0.8682195	-0.3143323	0.38389194
4.849460139515976e-10	0.5134748	0.3039791	0.7803648	-0.85838306	-0.35169896	0.37336743
4.913393500067994e-10	0.54663414	0.23435584	0.7799963	-0.8498676	-0.3849768	0.35964975
4.976619429731402e-10	0.5760058	0.16459805	0.77465624	-0.84221905	-0.4162955	0.34224492
5.039974225461051e-10	0.6018212	0.094871946	0.7644275	-0.8347794	-0.4469887	0.32108462
5.103919140807063e-10	0.6242679	0.025826683	0.7493132	-0.8269236	-0.4775902	0.2964641
5.168694186772815e-10	0.64363617	-0.041550808	0.72933704	-0.8182057	-0.50801253	0.26892188
5.234617054554565e-10	0.6604488	-0.10625464	0.7045122	-0.8084135	-0.53784883	0.23899403
5.301459959897672e-10	0.6753166	-0.16668963	0.6751212	-0.7976739	-0.5663	0.20736194
5.368753855725452e-10	0.6890269	-0.22116423	0.6417228	-0.78634846	-0.5925683	0.17461896
5.436062189371146e-10	0.7024898	-0.26826873	0.6050319	-0.7748413	-0.6161462	0.14107507
5.502634438716543e-10	0.7165084	-0.3067457	0.56607723	-0.76350725	-0.6367512	0.10697044
5.569527852586034e-10	0.73211765	-0.33653927	0.52486134	-0.75220525	-0.65486133	0.07147401
5.63690961519819e-10	0.75000703	-0.35690048	0.48187196	-0.74074185	-0.6707139	0.034130506
5.704117929841217e-10	0.77036774	-0.36697668	0.438172	-0.72887963	-0.68441415	-0.00500012
5.770102079732729e-10	0.7928326	-0.3664375	0.39511824	-0.7163563	-0.6960624	-0.04543295
5.836053943887735e-10	0.81743026	-0.35517904	0.35259187	-0.7024627	-0.706102	-0.08791211
5.902460465825011e-10	0.843708	-0.33274817	0.3109592	-0.68658435	-0.7146741	-0.13275704
5.967748313510925e-10	0.870059	-0.2997557	0.27185974	-0.6687031	-0.72155094	-0.17882723
6.032182227173249e-10	0.8953668	-0.25670463	0.23570597	-0.6485332	-0.7266344	-0.22619465
6.096380843220378e-10	0.91851807	-0.20387183	0.20272282	-0.62574077	-0.7296498	-0.2752962
6.160859982771727e-10	0.93821234	-0.14158502	0.17326261	-0.600054	-0.730042	-0.32662457
6.226153375394635e-10	0.9530046	-0.0702584	0.14776441	-0.57125074	-0.72689205	-0.38080686
6.291773908457787e-10	0.9612417	0.008203538	0.12706727	-0.5397482	-0.71893394	-0.43766254
6.357633748087582e-10	0.9616903	0.09180023	0.11170952	-0.5061519	-0.7045146	-0.49725378
6.424208195739628e-10	0.9534541	0.17891443	0.10202931	-0.47126988	-0.68129885	-0.5599889
6.49125045228102e-10	0.9361378	0.2667479	0.098402575	-0.4370492	-0.64652336	-0.6252222
6.558846729962985e-10	0.9099314	0.3528126	0.10097756	-0.4064023	-0.5967972	-0.6918246
6.627086976306735e-10	0.8756161	0.43467814	0.109750316	-0.38382512	-0.5284248	-0.7572449
6.696236758675448e-10	0.8344227	0.5103057	0.12460172	-0.37578928	-0.4379475	-0.81667227
6.766550762150717e-10	0.788031	0.5778963	0.14530298	-0.39086485	-0.32391813	-0.8615252
6.837911203174698e-10	0.738747	0.6357094	0.17136194	-0.4379499	-0.19059385	-0.8784625
6.90966609259545e-10	0.689467	0.6823259	0.20184653	-0.520909	-0.051672533	-0.85184664
6.981157218475125e-10	0.6429627	0.71730024	0.23558217	-0.6324542	0.07172918	-0.77091706
7.05323625654716e-10	0.6006905	0.74143755	0.27206105	-0.75561523	0.16073713	-0.63440084
7.127478045521084e-10	0.563628	0.75543547	0.31125665	-0.8682457	0.20396402	-0.45124376
7.203095070492027e-10	0.5338172	0.75939447	0.35190013	-0.94742775	0.20164788	-0.24618931
7.278347299440038e-10	0.5127476	0.7540951	0.39216164	-0.98375714	0.16903177	-0.048609324
7.353942442975188e-10	0.5003574	0.74050224	0.43158865	-0.9833422	0.1250526	0.12659276
7.43034560417767e-10	0.496469	0.71923697	0.46964052	-0.95791966	0.085078195	0.27183318
7.507979626055187e-10	0.50071764	0.6906509	0.50575364	-0.9209273	0.05866475	0.3840875
7.586622835973854e-10	0.51242673	0.65518653	0.53906876	-0.8854389	0.04838863	0.46165222
7.665164358983098e-10	0.5303057	0.6138199	0.5684872	-0.8618269	0.048773624	0.50457364
7.744341620464709e-10	0.5531757	0.56668216	0.593745	-0.8543676	0.04829654	0.51718175
7.825111764284751e-10	0.57999855	0.5136362	0.614525	-0.8613564	0.03404487	0.5065061
7.900217181981096e-10	0.60678256	0.46051753	0.6290227	-0.87426543	0.0015268167	0.48494625
7.971924484502313e-10	0.6329533	0.40712702	0.6383349	-0.8853667	-0.04636369	0.46197563
8.043389514747115e-10	0.6587669	0.3521286	0.6431111	-0.8906226	-0.10523465	0.44180807
8.112750630323397e-10	0.68293184	0.2979043	0.6434238	-0.88876367	-0.16652487	0.42659545
8.180281844139653e-10	0.70519674	0.24519183	0.6396851	-0.8813195	-0.22488645	0.4153264
8.247076912961187e-10	0.7257563	0.19402155	0.63217366	-0.8705219	-0.27823895	0.40583444
8.313837762474269e-10	0.74477273	0.14473498	0.6210475	-0.8584162	-0.32616326	0.39585048
8.380055550073e-10	0.76217747	0.09855899	0.60666394	-0.8466244	-0.36881882	0.38353306
8.444073904643102e-10	0.7777793	0.057272784	0.5898488	-0.8360994	-0.40659624	0.36799598
8.507172024547365e-10	0.7921916	0.020510804	0.5707644	-0.8265649	-0.44170058	0.34845576
8.570322982109429e-10	0.80589986	-0.011744971	0.5494854	-0.81744623	-0.4755988	0.32449353
8.634037078307942e-10	0.8192531	-0.039119583	0.5261588	-0.80810314	-0.50896406	0.2960946
8.698549776122169e-10	0.8325119	-0.06104026	0.5010267	-0.79796684	-0.5418376	0.26361403
8.764213993367499e-10	0.8459111	-0.07692201	0.47430986	-0.7866103	-0.573938	0.22752419
8.830268866633434e-10	0.85937774	-0.08600193	0.44673508	-0.77404356	-0.60425854	0.18899612
8.896958232017806e-10	0.8729309	-0.08790533	0.41866595	-0.76032555	-0.6323152	0.1485706
8.963308278089912e-10	0.8862103	-0.08243452	0.39099842	-0.7458861	-0.65731597	0.10731412
9.028352440154349e-10	0.898748	-0.06995635	0.36459494	-0.73117685	-0.67885494	0.066074334
9.093269337218192e-10	0.9103982	-0.050635856	0.33940476	-0.716065	-0.69742656	0.024112666
9.158606009685017e-10	0.9207739	-0.02457546	0.31566167	-0.7004063	-0.713256	-0.019112421
9.22430196910415e-10	0.929297	0.007837083	0.29383802	-0.68405414	-0.7263857	-0.06386946
9.28901972545051e-10	0.93527234	0.045215935	0.27472994	-0.66707265	-0.73666465	-0.109560594
9.353293151566333e-10	0.93832266	0.08690916	0.25843248	-0.64898026	-0.7442709	-0.15683171
9.41793737816038e-10	0.93806213	0.1325139	0.24501494	-0.62912524	-0.7491989	-0.20656317
9.482558739200164e-10	0.9341551	0.18074003	0.23480475	-0.60719943	-0.75112903	-0.25869992
9.546420650641478e-10	0.9265593	0.22989029	0.22801186	-0.5831634	-0.7496206	-0.31277224
9.609944094558525e-10	0.91534317	0.27913737	0.22458562	-0.55675447	-0.74402654	-0.36917853
9.67359287371992e-10	0.90064466	0.32774326	0.22449042	-0.5278681	-0.7332864	-0.42835218
9.737926281973374e-10	0.8826506	0.3750627	0.2277221	-0.4966351	-0.7157607	-0.4907844
9.803579341266343e-10	0.86160195	0.4204762	0.23432435	-0.46362752	-0.6889893	-0.5569169
9.870522247162372e-10	0.8380854	0.46288478	0.24426655	-0.43059888	-0.64986813	-0.6261309
9.938095858273004e-10	0.8131095	0.5009501	0.25728685	-0.40087977	-0.59517896	-0.69626766
1.0005769633079221e-09	0.7877741	0.5337391	0.27296713	-0.3792255	-0.52192426	-0.7638257
1.0073656581418406e-09	0.7629525	0.5609136	0.29094118	-0.37178367	-0.42747688	-0.82375
1.01420106615207e-09	0.7394246	0.5823204	0.31086403	-0.38621247	-0.31122094	-0.86795294
1.0211154034326387e-09	0.7178931	0.59789044	0.33240664	-0.430448	-0.17696746	-0.88462776
1.0281627402302952e-09	0.6989503	0.60759974	0.35530362	-0.5096457	-0.035341147	-0.85906845
1.0353545998361121e-09	0.6832521	0.61135143	0.37913105	-0.6201823	0.09408198	-0.7780813
1.0425767516394876e-09	0.67150486	0.6092008	0.40301424	-0.74371135	0.18735453	-0.64088994
1.0498433416966599e-09	0.6638791	0.60144836	0.42650425	-0.8563465	0.23168059	-0.46058714
1.0572173553936208e-09	0.6603853	0.5882899	0.44931322	-0.9383241	0.22842447	-0.25828704
1.064742035483309e-09	0.6609934	0.5698477	0.47106564	-0.9798466	0.1901375	-0.056074597
1.0724078530370552e-09	0.6655474	0.5463731	0.4912163	-0.98213613	0.13496989	0.12848943
1.0801006387759615e-09	0.6735796	0.518619	0.50901586	-0.9550345	0.081075445	0.28391647
1.0877037693781698e-09	0.68432856	0.48763883	0.5239064	-0.91248417	0.04098183	0.40631682
1.0954476842265587e-09	0.6975023	0.45309687	0.5360508	-0.86582243	0.018709855	0.49968028
1.1034544076582436e-09	0.71279675	0.41495523	0.5451938	-0.8254403	0.013355402	0.56427574
1.1114919784409308e-09	0.7291939	0.37502158	0.5507463	-0.8008554	0.01703351	0.59860754
1.1194591355794464e-09	0.745896	0.33470574	0.55261356	-0.794517	0.016688306	0.60689217
1.1272037621184337e-09	0.76210994	0.2957052	0.55099	-0.80178285	0.0015015828	0.59734905
1.1344230869554884e-09	0.7769134	0.26029927	0.5465172	-0.8138373	-0.030386515	0.5799437
1.1414396466671417e-09	0.7908358	0.22745848	0.53957236	-0.82434195	-0.076481625	0.5605259
1.1484430640480443e-09	0.8041732	0.19686483	0.5302663	-0.829847	-0.13264298	0.541669
1.1552058470677805e-09	0.81647754	0.16996038	0.5192355	-0.82939124	-0.1912323	0.5246972
1.1618602942568425e-09	0.82802343	0.14650954	0.5066483	-0.8242365	-0.24889211	0.50850797
1.1685074806420056e-09	0.83900774	0.12650682	0.49260768	-0.81608856	-0.30396655	0.4914978
1.1751850250091118e-09	0.8494984	0.11022741	0.4772995	-0.8065673	-0.3557546	0.4720562
1.1816939196761395e-09	0.8591964	0.09832905	0.46149597	-0.7971307	-0.40291584	0.44955772
1.1881485232243195e-09	0.8682748	0.09061141	0.44524586	-0.7881011	-0.44700956	0.42288473
1.1946514698222767e-09	0.87682563	0.0870828	0.4285805	-0.7792869	-0.48930076	0.39111328
1.2012583903645066e-09	0.8848118	0.08792283	0.41164836	-0.7702389	-0.53036726	0.353685
1.207948829865906e-09	0.8920498	0.09329078	0.3948135	-0.76045895	-0.56992686	0.31076205
1.2145172927028093e-09	0.8981663	0.102864265	0.37888938	-0.7497817	-0.60642385	0.26426944
1.221097641722391e-09	0.9031307	0.11652038	0.36382043	-0.73767483	-0.64017606	0.21412218
1.2277741824783311e-09	0.90678215	0.13422656	0.34970763	-0.7237456	-0.6710738	0.16043448
1.2345551437400934e-09	0.90886205	0.15576485	0.3368457	-0.7078155	-0.6986417	0.10385016
1.2412425925651924e-09	0.90912867	0.18001844	0.32583964	-0.69033515	-0.7218723	0.046714164
1.247922560702405e-09	0.9074904	0.20666578	0.31669837	-0.67113924	-0.74109775	-0.0111683495
1.2546706581658978e-09	0.90382123	0.23541039	0.30949393	-0.6500071	-0.75649524	-0.0701519
1.2614358540196867e-09	0.8981002	0.2653912	0.3044263	-0.62707174	-0.76787746	-0.12969656
1.2681083812054452e-09	0.89052206	0.2954208	0.3016	-0.6027203	-0.7750485	-0.18893291
1.274770133805396e-09	0.88118565	0.32519078	0.30094028	-0.57665676	-0.7779583	-0.24886645
1.281490342510589e-09	0.87020177	0.35436404	0.30242693	-0.54853934	-0.776127	-0.31057388
1.2883236270910504e-09	0.8577276	0.38252684	0.30606976	-0.5180404	-0.7685489	-0.3751493
1.2951937637515145e-09	0.8442339	0.40875196	0.31176618	-0.4855328	-0.7538593	-0.44245464
1.3020797864401927e-09	0.8301718	0.43245032	0.31934667	-0.4514982	-0.73020816	-0.51262665
1.3090325731920243e-09	0.8158779	0.45335278	0.3286856	-0.41666794	-0.6947924	-0.5860895
1.3161227726053333e-09	0.80166876	0.47122782	0.33969724	-0.38275614	-0.64353955	-0.6627114
1.3232779952164234e-09	0.78815985	0.4855321	0.35204464	-0.35392952	-0.5726049	-0.73934823
1.3305122535216756e-09	0.7757678	0.49606574	0.3654753	-0.33631364	-0.47773919	-0.8113787
1.3378711286912478e-09	0.7648307	0.5027077	0.37977806	-0.3388914	-0.35565534	-0.8707341
1.3452780081986827e-09	0.7558045	0.5053126	0.39448145	-0.37235495	-0.20990081	-0.9036541
1.3527330843599867e-09	0.7489179	0.50394607	0.40924725	-0.44481805	-0.05183911	-0.89359
1.360300571487234e-09	0.74427676	0.49868175	0.4238608	-0.5564556	0.09800163	-0.8243886
1.368071515382884e-09	0.7419693	0.48949713	0.43813473	-0.6936972	0.21263288	-0.6873208
1.3758265566317658e-09	0.74204916	0.47685683	0.451322	-0.8242626	0.26777428	-0.49788237
1.3836178527914392e-09	0.7443418	0.46105382	0.46322054	-0.9220518	0.26310432	-0.28244245
1.3915001765786896e-09	0.748664	0.44234258	0.47362927	-0.9741422	0.21362722	-0.06756155
1.3995531615730159e-09	0.7548471	0.42089993	0.48235595	-0.9811132	0.14020002	0.12908128
1.4075657528117968e-09	0.7624321	0.39777535	0.48896024	-0.952991	0.06522321	0.2936167
1.415651385490585e-09	0.7711871	0.37321618	0.49341065	-0.90324384	0.002555265	0.42760468
1.4238735228789694e-09	0.78088075	0.34761506	0.49559906	-0.8444487	-0.039585065	0.5333468
1.4320347454790087e-09	0.7909788	0.3222291	0.49544424	-0.7897653	-0.058737297	0.6103202
1.440112656024391e-09	0.8011752	0.2977685	0.49306905	-0.7483063	-0.060871996	0.66054237
1.448211433643187e-09	0.8113779	0.27453494	0.4885847	-0.72468346	-0.05681596	0.68665075
1.456159681385532e-09	0.82119685	0.25356448	0.48229802	-0.71911466	-0.058962997	0.6920475
1.4635463485028817e-09	0.8300275	0.23616116	0.4749583	-0.725379	-0.07474455	0.68372923
1.4705599496255555e-09	0.83806294	0.22184558	0.46683306	-0.73589694	-0.104905546	0.6682842
1.477506801024883e-09	0.84561676	0.2100628	0.45785934	-0.74584055	-0.14801276	0.6488824
1.484251727862604e-09	0.85250413	0.20111296	0.4484501	-0.7521849	-0.19894786	0.6277433
1.490886591265425e-09	0.8587916	0.19485243	0.43870988	-0.7543353	-0.25386465	0.60512656
1.4975303120354277e-09	0.8645422	0.19120741	0.42866272	-0.7528512	-0.3103219	0.58029616
1.504262060770567e-09	0.86974573	0.19023745	0.4183765	-0.74872065	-0.3666971	0.55213577
1.5109455628060342e-09	0.8742191	0.19197688	0.40825206	-0.74311984	-0.4205873	0.52032065
1.5176053905064256e-09	0.87791437	0.19632426	0.3984383	-0.7368107	-0.4717395	0.48404235
1.5243469204264324e-09	0.8808018	0.20326176	0.3889668	-0.7299781	-0.5207963	0.44214013
1.5312374096028162e-09	0.88278687	0.21280661	0.37994763	-0.7224145	-0.5679896	0.3936977
1.538095503606104e-09	0.8837216	0.22453028	0.3718021	-0.7139229	-0.611732	0.33996436
1.5448515033291955e-09	0.8835717	0.2379674	0.3647331	-0.7041445	-0.65125704	0.2820847
1.551629536192654e-09	0.88231945	0.2530126	0.35871544	-0.6924619	-0.686878	0.2197824
1.5585343667480306e-09	0.87990123	0.2695889	0.3537925	-0.67822456	-0.7185642	0.1528607
1.5655514453477322e-09	0.87628716	0.28732485	0.35011488	-0.6610195	-0.7456653	0.08230899
1.5725611868720295e-09	0.8715751	0.30551693	0.3478232	-0.6408738	-0.7674114	0.010283219
1.5796603856736983e-09	0.86578494	0.3239916	0.3469272	-0.61737424	-0.7839377	-0.063344054
1.5868733033971248e-09	0.85900044	0.34237716	0.34746924	-0.5903489	-0.7950406	-0.13816272
1.5940173642293789e-09	0.85156846	0.35979354	0.3494004	-0.56061465	-0.80030406	-0.211891
1.601139055680882e-09	0.84366417	0.37599853	0.35262758	-0.528303	-0.79960525	-0.28496897
1.6083166975644943e-09	0.8354282	0.3908341	0.35708815	-0.49340916	-0.7923038	-0.35848647
1.6156187481343757e-09	0.82702106	0.40409914	0.36273363	-0.45601404	-0.77698326	-0.43370986
1.623108280313145e-09	0.8186317	0.41554826	0.3695164	-0.41643253	-0.7511525	-0.51201487
1.6306800405898075e-09	0.8106523	0.424719	0.37720042	-0.3764458	-0.71182907	-0.5928172
1.6383441060768495e-09	0.8033335	0.43141997	0.3856086	-0.33836114	-0.6546605	-0.6758636
1.6460312653024903e-09	0.796968	0.43548024	0.39445144	-0.3067718	-0.57517487	-0.7582259
1.6537842342881377e-09	0.79170346	0.43689024	0.40355068	-0.28858155	-0.4681179	-0.83508253
1.6616500006868442e-09	0.7876653	0.43564293	0.41272965	-0.29448017	-0.32990295	-0.89671385
1.669650610006159e-09	0.7849673	0.43174765	0.42177337	-0.33806086	-0.16358264	-0.9265022
1.677622279500498e-09	0.78369904	0.42542565	0.43026632	-0.4276643	0.01110848	-0.9034269
1.6854928815942415e-09	0.78379273	0.41702712	0.43794498	-0.556692	0.16377974	-0.8137865
1.6934247898672468e-09	0.78515255	0.40666658	0.4447973	-0.7047721	0.2668802	-0.6564723
1.7015131439827228e-09	0.78772056	0.39445662	0.4507141	-0.8407078	0.30240414	-0.44797543
1.7096122522573618e-09	0.7913312	0.3809165	0.45542964	-0.93497884	0.27350992	-0.22336727
1.7176969245198045e-09	0.7957984	0.3664628	0.45883876	-0.97861373	0.20190562	-0.011478357
1.725934468489497e-09	0.80105007	0.35117298	0.4609223	-0.9772407	0.10995951	0.17598376
1.734097626224507e-09	0.80676657	0.33586752	0.46158567	-0.942782	0.019847482	0.32928836
1.7423120396724186e-09	0.8128568	0.32072115	0.46086562	-0.88830096	-0.05645848	0.45327288
1.7506712053294146e-09	0.81923294	0.30598375	0.45876375	-0.8247718	-0.11194823	0.5527762
1.7588486681765857e-09	0.8254955	0.29261005	0.45546374	-0.76471865	-0.14305653	0.62766147
1.7669353429679613e-09	0.83158284	0.28074178	0.45111084	-0.71512365	-0.15484333	0.6815355
1.7750670086532204e-09	0.8374815	0.27047002	0.44578674	-0.6804721	-0.15559936	0.7160305
1.7831045236307007e-09	0.8429887	0.26220548	0.43975544	-0.663193	-0.15578282	0.73173827
1.7908741842504019e-09	0.8479167	0.25618464	0.43336773	-0.6605401	-0.16466337	0.73184705
1.7981528044806017e-09	0.8521081	0.25241178	0.4270415	-0.6662572	-0.1857621	0.7213587
1.8052412451088422e-09	0.85573304	0.250531	0.4207056	-0.67490876	-0.21910366	0.70376074
1.8120408071430128e-09	0.85873497	0.25040275	0.41459367	-0.6828135	-0.26120654	0.68157285
1.8187539949876482e-09	0.86119723	0.2518635	0.40864497	-0.6884829	-0.30963594	0.6553
1.8255136035912079e-09	0.86313295	0.25487283	0.40285432	-0.6915054	-0.3622656	0.6246271
1.8324006613330525e-09	0.86450756	0.25943664	0.39727154	-0.6920639	-0.4172154	0.5888283
1.8393391145763347e-09	0.8652528	0.26543888	0.3920771	-0.6906421	-0.4719547	0.54774714
1.8462693790770439e-09	0.8653362	0.27268618	0.3874163	-0.68774474	-0.5247334	0.5013125
1.8532999367727945e-09	0.86473703	0.28113192	0.3833131	-0.6835129	-0.5755125	0.4484455
1.8604869859301499e-09	0.8634189	0.29068625	0.37984437	-0.67771935	-0.62388873	0.38840187
1.867590448801986e-09	0.8614378	0.30080912	0.377195	-0.6701653	-0.66757345	0.3233975
1.8746531864545375e-09	0.8588402	0.31130162	0.37536755	-0.66037023	-0.70632803	0.25378877
1.8818047967333886e-09	0.855631	0.3221112	0.3743573	-0.64762807	-0.7402477	0.17912278
1.889132846806918e-09	0.85181916	0.33312055	0.3742005	-0.63115954	-0.7689738	0.09936754
1.8964525100806474e-09	0.8475822	0.343794	0.37491214	-0.61091423	-0.79125726	0.017643314
1.9038367075138416e-09	0.84298944	0.3539897	0.37646982	-0.58646417	-0.8070841	-0.065696605
1.91138129479188e-09	0.83809954	0.36358196	0.37887114	-0.55732465	-0.81627977	-0.15072964
1.9190101255516683e-09	0.83309716	0.37222323	0.38204926	-0.52383375	-0.8183031	-0.23583822
1.9266246518470144e-09	0.8281937	0.37961006	0.3858739	-0.48684794	-0.81271434	-0.3195768
1.9343059711887025e-09	0.82348275	0.38566777	0.3902778	-0.44665352	-0.79863846	-0.40294904
1.942142303304607e-09	0.81906	0.3903011	0.395205	-0.4036808	-0.7741033	-0.48739356
1.9501206397200393e-09	0.81508356	0.39335057	0.40052775	-0.35938948	-0.73608935	-0.5734306
1.9582445650559766e-09	0.81169164	0.39470786	0.40610927	-0.31616008	-0.6800576	-0.6613854
1.9664524107846045e-09	0.80902445	0.39431718	0.41175285	-0.27858156	-0.6005744	-0.749396
1.974696090711599e-09	0.8071693	0.39221767	0.41726646	-0.2540943	-0.49200928	-0.8326036
1.9830374654117862e-09	0.80615497	0.38847306	0.42253426	-0.25395894	-0.34912747	-0.901876
1.9915000853117436e-09	0.80600184	0.38317356	0.42741442	-0.2936812	-0.17350766	-0.93979466
1.9998761124061242e-09	0.8066777	0.37663743	0.43165877	-0.38409683	0.013667311	-0.9228029
2.0079966795451294e-09	0.8080561	0.36928523	0.43511876	-0.5178209	0.17673773	-0.83643126
2.0160346996524997e-09	0.8100448	0.36124223	0.43783432	-0.6725589	0.28624403	-0.6815759
2.024139839753243e-09	0.81258976	0.35259268	0.43980435	-0.8166133	0.3247222	-0.47591367
2.032397933730396e-09	0.8156386	0.34347197	0.44098464	-0.9219574	0.2943983	-0.24914919
2.0404505855792725e-09	0.8189509	0.33452344	0.44132197	-0.9741924	0.21862105	-0.039935634
2.0486698829620895e-09	0.8225703	0.3255798	0.44085103	-0.98105514	0.11920846	0.1454657
2.0569973992584874e-09	0.8263757	0.3169574	0.439571	-0.95233715	0.016435575	0.3000457
2.0653243428808752e-09	0.830217	0.3090083	0.43754253	-0.9010168	-0.07425522	0.42393708
2.073629517813436e-09	0.8339886	0.3019587	0.43485266	-0.83893585	-0.1446144	0.5223057
2.081797720564126e-09	0.8375554	0.29605708	0.4316504	-0.77642286	-0.19132496	0.59919465
2.08993870403369e-09	0.840894	0.29133528	0.42801273	-0.71989095	-0.21705025	0.65885997
2.0981312372114875e-09	0.8439667	0.28786162	0.4240157	-0.67447877	-0.22714552	0.702456
2.1062666902734543e-09	0.8466712	0.28575194	0.41983128	-0.64434904	-0.22969288	0.7292699
2.114326959756772e-09	0.84895575	0.2850102	0.4155931	-0.62975144	-0.2341418	0.7401099
2.122061347861158e-09	0.8507348	0.28555402	0.41154924	-0.62750673	-0.24741477	0.7373338
2.1294576498753483e-09	0.8520257	0.28718826	0.40779772	-0.6321604	-0.27178746	0.7245358
2.1364488801381486e-09	0.85285574	0.28967935	0.4044327	-0.6391188	-0.3054477	0.7048373
2.1432903957585566e-09	0.85328764	0.292938	0.40137446	-0.64589226	-0.34666732	0.6793431
2.1501565136644787e-09	0.8533366	0.29694086	0.3985951	-0.6512913	-0.39377263	0.64804965
2.1571557147883006e-09	0.8529907	0.30167538	0.3961118	-0.6548297	-0.44504088	0.6104282
2.1642206716329063e-09	0.852245	0.30700663	0.39400753	-0.6564086	-0.49775037	0.56656426
2.1712691304645655e-09	0.851121	0.31275004	0.39234614	-0.6561919	-0.5494813	0.51680887
2.178397989234922e-09	0.84962475	0.3188527	0.39113632	-0.65425813	-0.5995987	0.46035752
2.185712026666333e-09	0.8477508	0.3252718	0.39040232	-0.6503548	-0.6476614	0.3961722
2.193052424751175e-09	0.84557205	0.3317214	0.3901862	-0.64412475	-0.6915792	0.32577443
2.20038946858535e-09	0.8431518	0.33802462	0.3904831	-0.63508713	-0.7303522	0.25011408
2.207817184277032e-09	0.84051824	0.34411368	0.3912859	-0.62253857	-0.76368237	0.16910702
2.2153759036074217e-09	0.8377203	0.34986836	0.39258853	-0.6057587	-0.7909178	0.08334495
2.2229484847448663e-09	0.8348743	0.35505942	0.3943402	-0.5845207	-0.81106424	-0.0045869043
2.2305994747460224e-09	0.83203375	0.359609	0.39650834	-0.55838525	-0.8239533	-0.09413938
2.238434911460486e-09	0.82924235	0.36344883	0.39907616	-0.52682054	-0.8292553	-0.18540263
2.246418585714358e-09	0.82660043	0.36643365	0.4019754	-0.49004215	-0.8262523	-0.2770583
2.2544099326065906e-09	0.8242346	0.36843443	0.40507734	-0.4492659	-0.8142727	-0.367076
2.2625082072442573e-09	0.82218647	0.36943278	0.4083333	-0.40496665	-0.79190123	-0.45669508
2.2707236049217165e-09	0.8205213	0.36939386	0.411657	-0.35850853	-0.7566483	-0.54653704
2.2790433632745397e-09	0.8192981	0.36831152	0.4149474	-0.3122322	-0.7046911	-0.6369833
2.287553154745577e-09	0.81855243	0.36618698	0.41813785	-0.26958606	-0.6296247	-0.7285508
2.2961433466845366e-09	0.81832314	0.36309758	0.42108697	-0.23801526	-0.5251752	-0.8169764
2.304809045346193e-09	0.81861055	0.35914612	0.42370254	-0.22879948	-0.3852542	-0.8939154
2.3133490785562457e-09	0.8193721	0.35457647	0.425859	-0.25672773	-0.21379167	-0.94237876
2.3217647952896683e-09	0.8205426	0.34957138	0.42752445	-0.3340302	-0.025033742	-0.9419217
2.330128750173638e-09	0.82206476	0.3442615	0.4286934	-0.4624902	0.15283523	-0.87282616
2.338286132454046e-09	0.8238361	0.33891433	0.42934826	-0.619604	0.28023925	-0.73237884
2.346408940645535e-09	0.8258209	0.33357424	0.429519	-0.7734197	0.33609617	-0.5362846
2.3546313234823136e-09	0.82799035	0.32830137	0.4292104	-0.8938435	0.31914	-0.312923
2.3627605225900767e-09	0.83022875	0.32335958	0.42844966	-0.9627639	0.24870309	-0.09871145
2.3708431010757366e-09	0.83248305	0.31884053	0.42727676	-0.9835601	0.1504941	0.08904791
2.3792741002048135e-09	0.8347996	0.3146662	0.4256578	-0.9655988	0.04056208	0.25145912
2.3876460392433343e-09	0.8370036	0.31117067	0.42370912	-0.92099845	-0.060300805	0.38072288
2.3959712857474493e-09	0.83904505	0.30842	0.42150095	-0.8621181	-0.1428467	0.48305857
2.4040806578076396e-09	0.84084415	0.30649406	0.41915968	-0.8000082	-0.20195965	0.5630102
2.4121888845478672e-09	0.8424185	0.30534732	0.41670135	-0.74032116	-0.2397563	0.62714016
2.4203983414027305e-09	0.84375167	0.30499357	0.41416544	-0.68811214	-0.25950637	0.6774172
2.4285089560208016e-09	0.84478563	0.3054334	0.41168463	-0.6489495	-0.2669093	0.7124413
2.4365908632017435e-09	0.8455174	0.30662253	0.40930438	-0.6243963	-0.27050036	0.7324358
2.4447066244064835e-09	0.8459397	0.30852056	0.40706968	-0.6136216	-0.27865192	0.737991
2.452389620059563e-09	0.8460463	0.3109047	0.40515012	-0.6132202	-0.2961219	0.73118776
2.4596122438858335e-09	0.84588814	0.31360072	0.4035589	-0.61796033	-0.3231433	0.71554345
2.4665741464521824e-09	0.8455048	0.31654996	0.40224984	-0.62433636	-0.35834324	0.693042
2.47349579504361e-09	0.8449093	0.31975412	0.40118906	-0.63050365	-0.4003752	0.6640984
2.4805196586911535e-09	0.8441015	0.32320857	0.40037483	-0.6355033	-0.44776544	0.6283761
2.4876775701777983e-09	0.84308726	0.32685864	0.39982802	-0.6388571	-0.49846888	0.58553773
2.4948044644538185e-09	0.8419099	0.33054024	0.39957267	-0.6403879	-0.5492284	0.53647435
2.501972514519552e-09	0.8405856	0.33420792	0.3996055	-0.64011836	-0.5988834	0.4807243
2.5092960042642587e-09	0.83912003	0.33783528	0.39993122	-0.63784933	-0.6468429	0.41730356