# t (s)	mx ()	my ()	mz ()	m.region1x ()	m.region1y ()	m.region1z ()
0	0	1	0	0	1	0
1.023e-12	-0.01704482	0.99979097	0.01099746	-0.0752168	0.99699485	0.018542718
2.047e-12	-0.03370014	0.9991757	0.022039047	-0.14869846	0.98811483	0.038960055
4.095e-12	-0.06576205	0.9968045	0.044199992	-0.28720015	0.95418316	0.08396855
8.191e-12	-0.12473619	0.98802364	0.08868632	-0.5162016	0.8371854	0.18070835
1.3057098839506595e-11	-0.18564637	0.9719141	0.14147234	-0.69528866	0.65923107	0.28632075
1.8001199931565083e-11	-0.23732142	0.95090336	0.19461644	-0.7934978	0.483936	0.36897478
2.3512696384976775e-11	-0.28310046	0.92382157	0.2528441	-0.84261703	0.32299006	0.4308484
2.994980969081495e-11	-0.32161912	0.88946825	0.31901255	-0.86202437	0.18513411	0.47178635
3.689795850975863e-11	-0.34657434	0.8512076	0.3877506	-0.8674229	0.08363274	0.49042577
4.4067837661797444e-11	-0.35612297	0.8120096	0.45540437	-0.87050474	0.012216894	0.49192947
5.1376562135861825e-11	-0.35097075	0.7731483	0.5207029	-0.87524164	-0.040806476	0.4818651
5.875679122932964e-11	-0.33254462	0.7350928	0.582729	-0.88142514	-0.08400625	0.46467996
6.626334380262518e-11	-0.30213356	0.69706154	0.6416599	-0.88772976	-0.12280078	0.4435598
7.395891223402993e-11	-0.26068673	0.6577351	0.69758105	-0.8929956	-0.15964669	0.42067042
8.187907575623216e-11	-0.2091969	0.6154618	0.7501811	-0.8966069	-0.19518417	0.39736414
9.00319102477232e-11	-0.1490419	0.5683258	0.7987777	-0.89849627	-0.22924852	0.37424186
9.84166673606016e-11	-0.08210253	0.5142088	0.84246093	-0.8989545	-0.2615941	0.35123035
1.0700687784248603e-10	-0.01103751	0.45118552	0.88004005	-0.89839077	-0.29209667	0.32785597
1.1585305486785211e-10	0.061536863	0.37707	0.91048056	-0.89715767	-0.32107213	0.30321154
1.2497362163422923e-10	0.13217846	0.29047123	0.9323533	-0.89549506	-0.3486994	0.2764306
1.3426309478238547e-10	0.19627506	0.19237985	0.944	-0.8935654	-0.37468046	0.24712709
1.4387593913737452e-10	0.2512312	0.082480185	0.9441974	-0.8913878	-0.39927614	0.21429352
1.5366052789295346e-10	0.293396	-0.034709625	0.9317552	-0.88895905	-0.42179227	0.17819911
1.6333010740510435e-10	0.32123327	-0.15162167	0.90707654	-0.8862497	-0.44139248	0.14014414
1.7305890236586867e-10	0.33703494	-0.2660111	0.8703995	-0.8830725	-0.45834714	0.10000442
1.8277031356392557e-10	0.34390947	-0.37304932	0.8228831	-0.879313	-0.47248906	0.058798585
1.9229398615523875e-10	0.34635276	-0.46805435	0.766882	-0.8749653	-0.48373806	0.018010715
2.0140989281828381e-10	0.34916577	-0.54771686	0.70576495	-0.870157	-0.49222326	-0.02081877
2.1041983055818096e-10	0.3566106	-0.61420727	0.63932025	-0.8647828	-0.4986004	-0.05864942
2.1953406022775778e-10	0.372687	-0.66785944	0.56718343	-0.8587216	-0.50321615	-0.09625525
2.285943807427599e-10	0.4003051	-0.7062429	0.4917457	-0.8520528	-0.50615096	-0.1331022
2.3795714102683306e-10	0.44327897	-0.7282542	0.41117913	-0.8444221	-0.50757277	-0.17095415
2.4720425397633775e-10	0.50094336	-0.7296474	0.33042133	-0.8360469	-0.5073734	-0.20858079
2.5613706342540045e-10	0.5700767	-0.70855355	0.25282913	-0.82707393	-0.50549555	-0.24562344
2.648979823124545e-10	0.6478933	-0.6630912	0.17884895	-0.81741774	-0.5016465	-0.28298393
2.7339781865582914e-10	0.7283201	-0.59270173	0.11096441	-0.80737877	-0.4953496	-0.32039383
2.8187736241330087e-10	0.80714947	-0.49496913	0.049168974	-0.7970895	-0.48555595	-0.35879904
2.9023167487074854e-10	0.87603664	-0.37197673	-0.0036898814	-0.78740203	-0.4711253	-0.39729565
2.9844480660810845e-10	0.9276159	-0.22784421	-0.04570039	-0.7794361	-0.45065546	-0.43488568
3.0658945765169865e-10	0.9561272	-0.067440346	-0.07564724	-0.774647	-0.4223804	-0.47028023
3.1480454816642735e-10	0.9570457	0.104157165	-0.09245762	-0.7750574	-0.3840977	-0.5012914
3.2253824058900287e-10	0.9304966	0.26614502	-0.09512128	-0.7824578	-0.33821315	-0.5223056
3.3027849342383726e-10	0.87852883	0.42022058	-0.08483866	-0.79865885	-0.2832894	-0.5303166
3.38211095988265e-10	0.8031297	0.56203413	-0.06140983	-0.8254746	-0.22052416	-0.51891285
3.460907018654879e-10	0.7125568	0.68101144	-0.02643573	-0.86138403	-0.15724772	-0.48233873
3.540539271983821e-10	0.61298907	0.7758916	0.01898876	-0.90314376	-0.099967554	-0.41693443
3.6219702414063703e-10	0.51101017	0.84605217	0.07372776	-0.9447037	-0.055911697	-0.32260796
3.7027810821344507e-10	0.4168017	0.8906522	0.13402532	-0.9772656	-0.030907337	-0.20918708
3.7831941509795377e-10	0.33535376	0.91356456	0.19773659	-0.9957251	-0.023551166	-0.087639496
3.8643601553084325e-10	0.26909995	0.91887844	0.26380482	-0.99882364	-0.02828681	0.03263635
3.9485723734599295e-10	0.21918671	0.90952694	0.33239228	-0.9883486	-0.03782551	0.14513868
4.031963416279611e-10	0.18899822	0.88878363	0.3988196	-0.9700747	-0.044385202	0.23730926
4.114926445456703e-10	0.17715491	0.8592996	0.46219847	-0.9509495	-0.044173628	0.30544654
4.198431494314105e-10	0.1819538	0.8222606	0.5222512	-0.93680656	-0.038550094	0.34749833
4.2797580274236027e-10	0.20072426	0.77979046	0.57631326	-0.9313582	-0.03405066	0.36250323
4.357585582410757e-10	0.22958663	0.7333603	0.6233101	-0.93373936	-0.03842786	0.35580984
4.4348974497456134e-10	0.266622	0.68147194	0.6648422	-0.9404251	-0.057027895	0.33487773
4.515087076344193e-10	0.31142735	0.6213299	0.70193946	-0.9471959	-0.09267527	0.3063931
4.5928979585056877e-10	0.35872573	0.5566812	0.7316109	-0.94979143	-0.13938168	0.27935064
4.670546768724963e-10	0.4073586	0.48611617	0.754562	-0.94701433	-0.1911957	0.25727242
4.748799325917269e-10	0.45564225	0.409389	0.7705834	-0.93969643	-0.24183589	0.2412099
4.82429855925488e-10	0.4997427	0.33089757	0.7790115	-0.93048215	-0.2844786	0.23051646
4.893901139953947e-10	0.5370389	0.25572067	0.7805371	-0.9220629	-0.31647235	0.22276406
4.959865923064435e-10	0.5687207	0.18310682	0.776437	-0.9153422	-0.34039313	0.21510136
5.024233635055337e-10	0.5958856	0.11211979	0.7673021	-0.91041255	-0.35894698	0.20544073
5.088240534911265e-10	0.6192164	0.042578448	0.7533354	-0.90696096	-0.3744389	0.19233066
5.150718133668253e-10	0.63869494	-0.023159979	0.73521566	-0.90446126	-0.38835233	0.17552473
5.212046224169852e-10	0.6550933	-0.08458218	0.713379	-0.9021907	-0.40198568	0.15523672
5.273111481830502e-10	0.6693345	-0.14172165	0.6879559	-0.8995341	-0.41605216	0.13189977
5.334333091368966e-10	0.68222225	-0.19410175	0.6591325	-0.8961017	-0.43060935	0.1062925
5.395903053773487e-10	0.6945452	-0.24102558	0.6271704	-0.89175415	-0.44528937	0.07937007
5.458030942639637e-10	0.70711297	-0.2817995	0.5923285	-0.8865714	-0.45954776	0.052019328
5.519682997250654e-10	0.72043544	-0.31509447	0.5556382	-0.8809035	-0.4725768	0.025448428
5.581344467641977e-10	0.73521197	-0.340692	0.5173097	-0.87502944	-0.4840641	-0.00015269175
5.643052175101337e-10	0.751895	-0.3580979	0.4778086	-0.86922824	-0.49376822	-0.02475816
5.704667641920862e-10	0.77068543	-0.36683887	0.43772882	-0.86370283	-0.5015882	-0.048580043
5.765892535521069e-10	0.79147583	-0.36659157	0.39778283	-0.85854816	-0.507545	-0.071966246
5.82720920554365e-10	0.81417596	-0.3571047	0.35817924	-0.8536804	-0.51179993	-0.095620945
5.888560009226939e-10	0.8382765	-0.33813465	0.31949133	-0.84897745	-0.51446897	-0.11999566
5.948960750093733e-10	0.86263984	-0.31010056	0.28284904	-0.8443363	-0.5156627	-0.14502859
6.008129700386733e-10	0.8862289	-0.2736985	0.2488554	-0.8395983	-0.51554406	-0.170736
6.066899354937068e-10	0.9083696	-0.22903357	0.21744551	-0.83454627	-0.5142156	-0.19748108
6.125826025718963e-10	0.9281664	-0.17620762	0.18878585	-0.8290186	-0.51166844	-0.2254537
6.185297409481473e-10	0.94453865	-0.11546607	0.16320387	-0.8229151	-0.5077845	-0.2547297
6.244570090113283e-10	0.9561244	-0.048515048	0.14147882	-0.81632745	-0.5024313	-0.2847825
6.303559277264936e-10	0.9619806	0.023204334	0.123970985	-0.809373	-0.49536568	-0.3153658
6.362591624868229e-10	0.9614103	0.09856387	0.11086379	-0.80220604	-0.48618644	-0.34642082
6.422109130746487e-10	0.95384437	0.17648348	0.10234332	-0.79506433	-0.47430998	-0.3778956
6.482558503166616e-10	0.93884397	0.25576347	0.09864514	-0.7883254	-0.45894665	-0.40961254
6.543776444871294e-10	0.9164143	0.3342678	0.10000909	-0.7826252	-0.4392904	-0.4408428
6.605260301069523e-10	0.8872528	0.4094468	0.10644967	-0.7788185	-0.41465896	-0.47036958
6.667293480577787e-10	0.85218626	0.47989625	0.11786696	-0.7778933	-0.3841783	-0.49693626
6.730414005469679e-10	0.8121335	0.54459417	0.13419732	-0.78109074	-0.34694427	-0.5187305
6.793823054233816e-10	0.76914406	0.60143644	0.1549179	-0.7896706	-0.30332673	-0.5327922
6.857554601498553e-10	0.72494704	0.6496838	0.17954174	-0.804667	-0.2541494	-0.53599334
6.921842461993843e-10	0.68113816	0.68907404	0.20761013	-0.8266452	-0.20118722	-0.52487993
6.987161710621812e-10	0.63910043	0.71965367	0.23876949	-0.8553785	-0.14728165	-0.4959341
7.053837521274929e-10	0.6002625	0.74145925	0.27259848	-0.8892754	-0.09662835	-0.44634765
7.120693888505934e-10	0.5666587	0.7544029	0.30784744	-0.9243747	-0.054930292	-0.37682363
7.187573157756439e-10	0.53925145	0.7591514	0.34374583	-0.9562881	-0.025886562	-0.29058164
7.255047580440859e-10	0.5184057	0.7564063	0.3799531	-0.98115075	-0.010838551	-0.19203612
7.323953432509774e-10	0.5043613	0.74655944	0.416287	-0.9960443	-0.009024983	-0.08615544
7.394709618676759e-10	0.49742907	0.7297739	0.45230943	-0.9993535	-0.017677274	0.02119852
7.466586336733843e-10	0.49772498	0.70645845	0.48698384	-0.9915507	-0.031993337	0.12295121
7.538876289791087e-10	0.50478745	0.6772098	0.5193692	-0.97544	-0.04639758	0.21357663
7.612127770044179e-10	0.5179494	0.64213896	0.54914594	-0.9548762	-0.056494404	0.29046297
7.686520960606709e-10	0.5364094	0.6013973	0.575804	-0.9342438	-0.059929885	0.35095835
7.762280549434916e-10	0.5592479	0.5551049	0.5988319	-0.9177683	-0.057500795	0.3926738
7.83989677773954e-10	0.5855377	0.5032567	0.6177503	-0.9086274	-0.053670112	0.4139982
7.918654551454347e-10	0.6138533	0.44683236	0.63181406	-0.90786815	-0.055803183	0.41527587
7.998157829878651e-10	0.6428449	0.38693264	0.6405563	-0.91323996	-0.07088876	0.40076566
8.077555555023653e-10	0.6711384	0.32530633	0.64371395	-0.9201901	-0.10150003	0.37748584
8.153124261736764e-10	0.69671845	0.2661696	0.64155847	-0.92435765	-0.142647	0.35319582
8.229093750574787e-10	0.72065574	0.20750803	0.634436	-0.92420465	-0.190483	0.3303903
8.301894007045136e-10	0.741745	0.15324315	0.62315214	-0.9201387	-0.23708344	0.31122077
8.37081390971215e-10	0.760073	0.10469107	0.6087049	-0.91398877	-0.2782523	0.29506868
8.437368854324665e-10	0.7764198	0.061319575	0.5915664	-0.9072896	-0.31349272	0.28020602
8.503009787653907e-10	0.79147345	0.022723548	0.57191455	-0.9009943	-0.34350932	0.26495844
8.568746191391687e-10	0.8057578	-0.011053071	0.54985267	-0.89557374	-0.36939776	0.24786666
8.633428183906373e-10	0.8193091	-0.03890893	0.52619535	-0.89119923	-0.39179283	0.22831737
8.697177163830819e-10	0.83240473	-0.060630757	0.5013762	-0.8875752	-0.41187167	0.20584428
8.760991702259897e-10	0.8454218	-0.07625817	0.47544065	-0.88422406	-0.4307066	0.18001275
8.825392004505182e-10	0.8585483	-0.085495144	0.44858462	-0.8807032	-0.44876575	0.15078606
8.890424597568561e-10	0.8717721	-0.08792714	0.42121524	-0.87668264	-0.46600622	0.118587576
8.95429608370612e-10	0.8845924	-0.083450526	0.3945318	-0.8721142	-0.48170072	0.085040584
9.017746121323759e-10	0.89691746	-0.072266914	0.3686491	-0.8669474	-0.49573785	0.05055634
9.081661871165235e-10	0.90856695	-0.05434102	0.34363157	-0.8611895	-0.50801194	0.01529859
9.146234425647508e-10	0.9191071	-0.029716885	0.31985515	-0.8549396	-0.51830924	-0.020365575
9.21034857434658e-10	0.92784387	0.0007847457	0.29813913	-0.84843564	-0.52635646	-0.055546556
9.273768020101621e-10	0.9342739	0.036319565	0.2788776	-0.8418094	-0.5321775	-0.09004382
9.337241183267577e-10	0.9380131	0.07651261	0.26213443	-0.8350448	-0.53589606	-0.12433329
9.4011418655471e-10	0.9386171	0.1207945	0.24812236	-0.82812726	-0.53751314	-0.15876248
9.464980207447403e-10	0.935721	0.1678783	0.23720212	-0.8211179	-0.53694975	-0.19324762
9.528103427955564e-10	0.92922884	0.21618462	0.22959311	-0.81409836	-0.53413653	-0.2276044
9.591156853945629e-10	0.9191154	0.2650957	0.22525385	-0.8070209	-0.5288987	-0.26230916
9.654705795711683e-10	0.9054013	0.31396598	0.22420514	-0.799876	-0.52089226	-0.29773855
9.719304378055486e-10	0.8881718	0.3621207	0.22651349	-0.792716	-0.5095692	-0.33417004
9.78397295933682e-10	0.86811125	0.40777707	0.23211092	-0.7858652	-0.49453196	-0.37084502
9.848776906871305e-10	0.84584045	0.45007828	0.24082705	-0.77967477	-0.4751628	-0.40734273
9.914114830688551e-10	0.8219566	0.48848873	0.25250557	-0.7746724	-0.45062292	-0.44309014
9.980498696558001e-10	0.79707336	0.52257115	0.2670207	-0.7716754	-0.41988218	-0.47707587
1.004844843901104e-09	0.7718683	0.55188006	0.2842559	-0.77189684	-0.38183662	-0.5075559
1.0117317372627043e-09	0.747501	0.57559043	0.30373672	-0.77686954	-0.33637595	-0.5314172
1.0187151732744002e-09	0.7248467	0.5934081	0.32507673	-0.78818774	-0.28387132	-0.54509044
1.0257299306228521e-09	0.7048911	0.6050883	0.34761894	-0.80694175	-0.22653154	-0.5444373
1.0327645078861028e-09	0.6882509	0.61075896	0.37083605	-0.8332895	-0.1677537	-0.5257518
1.0398684206320692e-09	0.67524904	0.610651	0.39440677	-0.8662246	-0.11182311	-0.48604733
1.0470954502124862e-09	0.6661372	0.60489976	0.4180238	-0.9031687	-0.06393786	-0.42372656
1.0544979040380064e-09	0.6611165	0.59354365	0.44134882	-0.9399525	-0.02934046	-0.33946776
1.061918622284888e-09	0.6602914	0.5770737	0.46339315	-0.9706594	-0.012187768	-0.2396476
1.0694122329519052e-09	0.6633998	0.55576634	0.48386955	-0.9912275	-0.012366768	-0.13042654
1.0770400677701334e-09	0.6701565	0.52978027	0.50248206	-0.99916995	-0.027122755	-0.017988795
1.084877842182531e-09	0.6802715	0.49915516	0.5189072	-0.99385583	-0.051661342	0.09246118
1.092885995924794e-09	0.69322836	0.46443126	0.53255326	-0.97678804	-0.079474986	0.19540751
1.1010110710605003e-09	0.70833737	0.42642272	0.54291075	-0.9515859	-0.103953116	0.28680095
1.10908008580122e-09	0.72458774	0.38674617	0.5495543	-0.9235384	-0.12016956	0.3627126
1.1171140098052074e-09	0.7413738	0.34622648	0.5524851	-0.897405	-0.12719199	0.42185223
1.1252315661409022e-09	0.75842226	0.30521682	0.55172336	-0.876976	-0.1276261	0.4631521
1.1332852118055135e-09	0.77502465	0.26545092	0.54736793	-0.8652259	-0.12717879	0.48488516
1.141239777053934e-09	0.79085076	0.22804542	0.5397263	-0.8620609	-0.13274613	0.48871303
1.1489714492401538e-09	0.8055421	0.19435956	0.5293598	-0.86469805	-0.1488842	0.4790011
1.1565779630218218e-09	0.8192697	0.16458312	0.5166252	-0.8693025	-0.17645058	0.46085337
1.1639606503241514e-09	0.83189654	0.13954477	0.50218016	-0.8727833	-0.212309	0.43871528
1.1711898920163808e-09	0.84360766	0.11926335	0.48638323	-0.8738283	-0.25249398	0.41491395
1.1780261022130604e-09	0.854095	0.10434566	0.4702658	-0.87260234	-0.2917338	0.391325
1.1846358571139076e-09	0.86368096	0.09414387	0.45389974	-0.869975	-0.32842284	0.367591
1.1911726499438294e-09	0.8725884	0.08832415	0.43725616	-0.8667321	-0.3621126	0.34291008
1.197746651639543e-09	0.8809015	0.08685794	0.4203599	-0.863443	-0.39283457	0.31637967
1.2042922234912336e-09	0.8884318	0.08978837	0.4036797	-0.8604846	-0.42031658	0.28773457
1.2107686651512069e-09	0.8950137	0.09693339	0.3876062	-0.8579226	-0.4447925	0.25678277
1.2172818611108566e-09	0.9005991	0.10822438	0.37215453	-0.8555538	-0.46704566	0.22280629
1.2239137471195277e-09	0.90503484	0.1237015	0.3574324	-0.853081	-0.48749524	0.18527183
1.2306121829615855e-09	0.90803456	0.14305961	0.34386343	-0.85022897	-0.5059116	0.14458282
1.2371604154914658e-09	0.9093462	0.16517618	0.33209506	-0.84687054	-0.521611	0.10251783
1.2436596088679228e-09	0.9089122	0.18975993	0.32207367	-0.8428378	-0.53475416	0.059044257
1.250215596130977e-09	0.906613	0.21666506	0.31380087	-0.8379939	-0.54538	0.014010554
1.2568935132298463e-09	0.90229344	0.2456252	0.30739892	-0.83224624	-0.55336857	-0.03251835
1.2635629581290697e-09	0.8960016	0.2754543	0.30313176	-0.825722	-0.55843776	-0.079150565
1.2702510859703703e-09	0.88779986	0.30560037	0.30102867	-0.81847155	-0.5605893	-0.12566535
1.2770271094435695e-09	0.8777355	0.3357017	0.30111462	-0.8105278	-0.55976444	-0.17221266
1.2838913644925141e-09	0.86600333	0.3650767	0.30342108	-0.80204743	-0.5557924	-0.2185171
1.2907262255262579e-09	0.853121	0.39259633	0.30783367	-0.7934129	-0.548567	-0.2635738
1.2975703099107228e-09	0.8394122	0.41788763	0.31422004	-0.78489006	-0.5378224	-0.30746493
1.3044724981834222e-09	0.82519877	0.44064415	0.32246548	-0.7768179	-0.52306867	-0.35028502
1.311484720409713e-09	0.8108186	0.46056655	0.3324677	-0.76966107	-0.50356126	-0.3920027
1.3186710869926381e-09	0.79662	0.47735825	0.344144	-0.764073	-0.4782397	-0.43236247
1.326027403543093e-09	0.7831207	0.49055794	0.3572756	-0.7610332	-0.44608724	-0.4702238
1.3334636875032107e-09	0.7709666	0.49971497	0.3714173	-0.7617734	-0.40668607	-0.5033858
1.3409603301650903e-09	0.7605874	0.50470257	0.38619566	-0.7676182	-0.35991913	-0.5292869
1.3485132441993864e-09	0.75229526	0.5055259	0.4012491	-0.7798902	-0.3065	-0.5446447
1.3561052448689756e-09	0.7463092	0.50228965	0.41618678	-0.7995229	-0.24857284	-0.54566413
1.3637667381684868e-09	0.74271	0.49514848	0.43071616	-0.8267132	-0.18949017	-0.52865964
1.3715553418719905e-09	0.7415163	0.484219	0.44459113	-0.86048794	-0.13386725	-0.49055946
1.3795478857538993e-09	0.74272585	0.46954817	0.45757028	-0.898342	-0.087254375	-0.42964846
1.3876664016155533e-09	0.7462368	0.4515229	0.4691534	-0.9354335	-0.05581883	-0.34821355
1.3958748951673037e-09	0.75180924	0.43061993	0.47896835	-0.96654093	-0.043036155	-0.2516899
1.4040001489561015e-09	0.758975	0.40783626	0.48660535	-0.9871681	-0.048702292	-0.14917007
1.412125788403222e-09	0.7674183	0.38355976	0.4920332	-0.99580145	-0.06932409	-0.046340004
1.4205026304118116e-09	0.7770852	0.3576225	0.49522972	-0.9923074	-0.10094072	0.05467502
1.4291739660116823e-09	0.7877428	0.33053407	0.49594963	-0.9774716	-0.13829477	0.1504454
1.4376865456113639e-09	0.79851556	0.30445027	0.49414223	-0.9549519	-0.17361791	0.23430952
1.4461057709400538e-09	0.8091993	0.2798668	0.49001896	-0.92838204	-0.2029135	0.3069777
1.4545065111691424e-09	0.8196721	0.25721732	0.48376417	-0.9009527	-0.22434235	0.3688482
1.4628057949436512e-09	0.8296674	0.23729673	0.47570944	-0.8759695	-0.2379779	0.41838
1.4711221857817317e-09	0.83919984	0.22032481	0.46603808	-0.8555941	-0.24648295	0.454756
1.4795217793979413e-09	0.8482206	0.20668694	0.45495814	-0.8414248	-0.25398895	0.47661924
1.4875659882013046e-09	0.85618585	0.1972681	0.4434327	-0.83406484	-0.2645573	0.48346806
1.4955108487333145e-09	0.86330587	0.19168662	0.4314944	-0.8314705	-0.2814148	0.47811368
1.5034689883523412e-09	0.8695865	0.18991667	0.4193088	-0.8314307	-0.30568653	0.4629982
1.5109105883466124e-09	0.87458456	0.19172683	0.407997	-0.83197415	-0.3340233	0.44213986
1.5179382588290664e-09	0.878433	0.1964356	0.39762875	-0.83210707	-0.36389363	0.4178911
1.5247975074615008e-09	0.88128614	0.20370574	0.3880089	-0.83164513	-0.39407164	0.39079916
1.5316466818048881e-09	0.8831651	0.21341082	0.37908006	-0.83072156	-0.4236658	0.3608335
1.5385160931454766e-09	0.8840059	0.22535485	0.3709712	-0.82957274	-0.45171887	0.32805714
1.5453094694576907e-09	0.8837553	0.23905581	0.36393023	-0.8284124	-0.47723833	0.2929923
1.5520538416021785e-09	0.88241035	0.25419533	0.35802224	-0.82730615	-0.5001063	0.25553143
1.558839330741346e-09	0.87994885	0.27062082	0.3532622	-0.82617605	-0.5205235	0.21516311
1.5657593424276094e-09	0.8763194	0.28821713	0.34970337	-0.82483995	-0.53859913	0.17131186
1.5728584442567225e-09	0.871486	0.30672985	0.34745887	-0.82305384	-0.55415297	0.12374917
1.5799396300118134e-09	0.8656499	0.32522595	0.3466545	-0.8206358	-0.5664971	0.07410209
1.587034961594543e-09	0.8589301	0.34336305	0.34726834	-0.81740534	-0.57552314	0.02267022
1.5942530974088926e-09	0.85138273	0.3609942	0.34930056	-0.8131838	-0.5811287	-0.030762438
1.6014902556186697e-09	0.84331226	0.37745854	0.3526802	-0.80797565	-0.58303463	-0.08479628
1.6087610920704736e-09	0.8349372	0.39243546	0.3573151	-0.80181885	-0.5811596	-0.1388829
1.6161347232809792e-09	0.8264276	0.40572926	0.3631408	-0.79478997	-0.5753586	-0.19288895
1.6236660248029962e-09	0.8179879	0.41709363	0.3700863	-0.7870809	-0.56534696	-0.24654861
1.6313106636703688e-09	0.80994767	0.4261561	0.37796313	-0.77914107	-0.5508735	-0.2988564
1.639001519683425e-09	0.8026399	0.43264183	0.3865061	-0.7716229	-0.5317571	-0.34867403
1.6467988178579673e-09	0.79624426	0.4364742	0.39556375	-0.765231	-0.5074428	-0.39563158
1.6547685190041495e-09	0.7909356	0.43755776	0.40498272	-0.7609042	-0.4771189	-0.43908072
1.6629124076662728e-09	0.78691775	0.43579847	0.41451406	-0.75988805	-0.44010803	-0.4775399
1.6711104576726142e-09	0.78437316	0.43126258	0.4237545	-0.76353896	-0.39664134	-0.50851333
1.6794385788496373e-09	0.7833303	0.42404306	0.43252778	-0.7732209	-0.34664384	-0.52972806
1.6878892335675871e-09	0.78379905	0.41431984	0.44056436	-0.79008293	-0.29148066	-0.53782904
1.6963900496487272e-09	0.785705	0.40245187	0.44756183	-0.81436634	-0.23448819	-0.52934337
1.70495285670088e-09	0.7889157	0.38877913	0.4533352	-0.8452308	-0.17998514	-0.50164557
1.7136362419602535e-09	0.79329455	0.37359753	0.45774752	-0.88057065	-0.13302618	-0.4533774
1.7223852192105327e-09	0.798627	0.3574423	0.46063277	-0.91645813	-0.0991981	-0.38617548
1.7312833565977558e-09	0.80476063	0.3406441	0.4619164	-0.9488107	-0.08202897	-0.30330783
1.740032268033895e-09	0.81126165	0.32427773	0.46156266	-0.9728172	-0.08272715	-0.21355094
1.7486839113151988e-09	0.8179411	0.30872613	0.45969215	-0.986725	-0.0986515	-0.1225951
1.7574658448629349e-09	0.824784	0.29405218	0.45634857	-0.99025875	-0.12654331	-0.03287992
1.7666269074944747e-09	0.8318021	0.28040764	0.45146593	-0.9835274	-0.1631643	0.054489434
1.7759763270403977e-09	0.83865786	0.26867843	0.4452278	-0.96786225	-0.2030086	0.13545418
1.785099850014919e-09	0.84489125	0.259733	0.4381652	-0.9466646	-0.2397817	0.20624939
1.7941790353777865e-09	0.8505074	0.25354788	0.4304493	-0.9224082	-0.27130324	0.26880246
1.8029637073337087e-09	0.8552652	0.25029838	0.4225971	-0.89824045	-0.2957524	0.32143015
1.8116876615137952e-09	0.85922736	0.24979028	0.41468453	-0.8756139	-0.31448308	0.364747
1.8204897658552806e-09	0.8623588	0.25198674	0.40684485	-0.8559899	-0.32949096	0.3975833
1.8291052605885383e-09	0.86450064	0.25664753	0.39955187	-0.84114623	-0.3430074	0.41758615
1.8375191069189349e-09	0.8656485	0.26340073	0.39300346	-0.83115554	-0.35779124	0.42495394
1.8458217280704885e-09	0.8658276	0.2719438	0.38727623	-0.82507145	-0.3758616	0.4209904
1.8537291792336335e-09	0.8651029	0.28153747	0.38263735	-0.82170606	-0.39689162	0.40805244
1.861282730825399e-09	0.8636037	0.29175034	0.3790468	-0.8197433	-0.41993675	0.38861993
1.868631540497941e-09	0.86141795	0.30239666	0.3764078	-0.81838965	-0.44403574	0.36413372
1.875900214616821e-09	0.8585986	0.31334674	0.37466687	-0.81729007	-0.46828496	0.33529818
1.8831533464443603e-09	0.85520005	0.3244229	0.37381023	-0.8163278	-0.49180835	0.30252784
1.890393728562584e-09	0.851309	0.33536798	0.3738301	-0.81547594	-0.5137785	0.26623905
1.897625281605209e-09	0.84702516	0.34594017	0.37470046	-0.81469816	-0.533618	0.22671644
1.904908035286791e-09	0.8424233	0.3559902	0.37639463	-0.8139013	-0.5510541	0.18385017
1.9123398183625576e-09	0.83755803	0.36540812	0.3789075	-0.8129255	-0.56589425	0.13722405
1.919996818779968e-09	0.83250964	0.37402052	0.38224044	-0.81155276	-0.577783	0.08653958
1.9277826107435113e-09	0.8274913	0.38146123	0.3862972	-0.80956995	-0.5860779	0.032797955
1.935610361616748e-09	0.8227128	0.38745934	0.39093065	-0.80681336	-0.5903517	-0.022791084
1.943480060890725e-09	0.81831884	0.39188874	0.39601284	-0.80317867	-0.59039474	-0.079472765
1.951398480056557e-09	0.8144363	0.39466798	0.40140936	-0.79865706	-0.58606255	-0.13647705
1.959420385957462e-09	0.8111573	0.3957551	0.40701243	-0.793326	-0.5771874	-0.19333962
1.967619412802046e-09	0.8085664	0.39510226	0.4127206	-0.7873864	-0.56347096	-0.24965863
1.9760434762057316e-09	0.80675817	0.39265773	0.41840014	-0.7812505	-0.54450154	-0.3047204
1.984558767185592e-09	0.8058305	0.38849318	0.42378762	-0.77570593	-0.52027917	-0.35654664
1.9932069473674595e-09	0.805801	0.38270316	0.4287415	-0.77165556	-0.49041754	-0.4041993
2.0019464332445764e-09	0.80665815	0.3754816	0.43307957	-0.77026343	-0.45480174	-0.4460304
2.0108541679322723e-09	0.80837095	0.36697474	0.4366914	-0.7728504	-0.41298854	-0.4805684
2.0199535635222765e-09	0.8108866	0.35740417	0.43944216	-0.7808863	-0.36510026	-0.50538313
2.029152647045614e-09	0.8140853	0.3471713	0.44119456	-0.7955076	-0.31279385	-0.5172535
2.0384731858720877e-09	0.81785	0.3366019	0.44188678	-0.8172884	-0.25847661	-0.51312053
2.047981159828029e-09	0.82207215	0.32599866	0.44147938	-0.84590447	-0.20581597	-0.49005383
2.0576178037108074e-09	0.8265772	0.3158262	0.4399705	-0.87917936	-0.1604236	-0.4466968
2.0672717966216854e-09	0.8311535	0.3065846	0.43744445	-0.9131844	-0.12795919	-0.3849328
2.076965436060356e-09	0.83565485	0.29859215	0.43401557	-0.9438063	-0.11180272	-0.308719
2.0863356968810646e-09	0.8397795	0.2923534	0.4300011	-0.9665878	-0.11259481	-0.22692789
2.0955912281263963e-09	0.8435161	0.28781682	0.42552403	-0.9803926	-0.12764373	-0.1435456
2.1049706772411063e-09	0.84685385	0.28499505	0.4206468	-0.9848753	-0.15409717	-0.06075061
2.1146304818632403e-09	0.8497205	0.28401935	0.41546386	-0.98011756	-0.18875536	0.01969391
2.124816677412489e-09	0.8520223	0.28509632	0.4100482	-0.9665936	-0.22843286	0.09761861
2.134746773212271e-09	0.8534823	0.28812408	0.40503645	-0.9473418	-0.26592225	0.16644159
2.1445378161598834e-09	0.85411954	0.29284164	0.40054965	-0.9248494	-0.298867	0.2273649
2.153949378139437e-09	0.8539664	0.2987701	0.3968187	-0.9020064	-0.32554832	0.27880317
2.163292178311108e-09	0.8530849	0.30574182	0.3938017	-0.8800241	-0.34733427	0.32147032
2.1725089697600086e-09	0.8515414	0.313393	0.39158425	-0.8606808	-0.36545146	0.35342363
2.181366551808793e-09	0.8494861	0.32118738	0.39021677	-0.84546554	-0.38153207	0.37305406
2.1901281537668812e-09	0.84697795	0.32904953	0.38962382	-0.8341608	-0.39809418	0.38106084
2.198576222929633e-09	0.84419817	0.3365268	0.38976496	-0.82655394	-0.41607285	0.3782653
2.2066293506397854e-09	0.8413058	0.34335133	0.39052898	-0.8216683	-0.43552876	0.36680382
2.2144018165139267e-09	0.8383751	0.34948623	0.39181328	-0.81846845	-0.4561407	0.3485648
2.222031357898106e-09	0.83544755	0.35493568	0.39355054	-0.81626654	-0.47735602	0.32469156
2.229624429979776e-09	0.83256376	0.3596788	0.39569348	-0.81467855	-0.49850804	0.29580534
2.2372365271700183e-09	0.8297796	0.3636572	0.39819294	-0.8135005	-0.51886034	0.26231742
2.2448779468937196e-09	0.827165	0.36679512	0.40098524	-0.8126011	-0.53767633	0.2246287
2.2525708752785503e-09	0.82478195	0.36903712	0.40400612	-0.81184816	-0.5543785	0.18298581
2.2603926671700596e-09	0.8226746	0.37034526	0.40721083	-0.81107527	-0.5685642	0.13725968
2.2684416557938147e-09	0.82088935	0.37066567	0.41055924	-0.81007105	-0.57979864	0.08714042
2.276748024761909e-09	0.81949544	0.3699307	0.41397244	-0.8085916	-0.58744824	0.032802984
2.285080024064939e-09	0.8185805	0.36816043	0.41725698	-0.80646193	-0.5908061	-0.023585124
2.2934639986383624e-09	0.8181577	0.36541754	0.42033023	-0.8035444	-0.58962643	-0.081328146
2.301916366891819e-09	0.8182293	0.36178473	0.42310944	-0.79980403	-0.58371365	-0.13958639
2.3104958079399224e-09	0.81878936	0.35734093	0.42552856	-0.7953174	-0.5728533	-0.19774358
2.319289349540082e-09	0.8198328	0.35215682	0.4275241	-0.79031205	-0.556692	-0.2552649
2.3283508095423084e-09	0.82134795	0.346338	0.42901665	-0.78527117	-0.53478205	-0.3112034
2.337515225450552e-09	0.82326305	0.34017113	0.42991138	-0.78108877	-0.5072551	-0.36315084
2.346725213022401e-09	0.82549405	0.3339075	0.43017548	-0.7788284	-0.47420618	-0.40938774
2.356079239890986e-09	0.82798475	0.3277024	0.42980292	-0.7797171	-0.43525392	-0.44872493
2.365661025994366e-09	0.83067393	0.32173574	0.42878678	-0.7852371	-0.39016724	-0.4791811
2.375409266913527e-09	0.8334517	0.31628862	0.42715418	-0.79679453	-0.34002024	-0.497636
2.3852841245702726e-09	0.8362058	0.3116105	0.4249696	-0.81526494	-0.28703064	-0.5008696
2.3953071559416727e-09	0.8388392	0.3078949	0.42231354	-0.8406409	-0.23459893	-0.48593393
2.4055584699217993e-09	0.8412665	0.30530047	0.41926917	-0.8717133	-0.18730445	-0.45054585
2.4159162787379367e-09	0.8433565	0.303996	0.41600147	-0.90502995	-0.15129997	-0.39523762
2.4261013205457355e-09	0.844983	0.3040224	0.41274676	-0.93557	-0.1313847	-0.32527652
2.4359103359830567e-09	0.8460948	0.30523795	0.40970603	-0.95929766	-0.12817964	-0.24828191
2.4455401626101404e-09	0.84671956	0.3074857	0.4069268	-0.97476554	-0.13937223	-0.16859119
2.4552014763876927e-09	0.84686637	0.31066996	0.4044458	-0.98144156	-0.16220875	-0.08889428
2.4650480952353653e-09	0.846524	0.31471267	0.40232384	-0.97933733	-0.19362414	-0.011098358
2.475536407635799e-09	0.84563893	0.31968924	0.40059584	-0.96856093	-0.23145638	0.066034146
2.4859878964743215e-09	0.84427357	0.32508656	0.3994789	-0.9511554	-0.26926446	0.13634977
2.496303340565297e-09	0.84252596	0.330584	0.3989987	-0.9297358	-0.3035046	0.19912143
2.5061129085797384e-09	0.8405778	0.3357373	0.3991165	-0.90750253	-0.33169287	0.25200132
2.5158015801801136e-09	0.83846915	0.3405513	0.39976025	-0.88563275	-0.35516733	0.29617694
2.5251805756628102e-09	0.83634114	0.34478062	0.40084302	-0.86619484	-0.37460706	0.32935935
2.534212644581706e-09	0.83429235	0.34832048	0.40226233	-0.8503289	-0.39173332	0.3507362
2.543164287180435e-09	0.8323369	0.3512108	0.4039742	-0.8380234	-0.40882492	0.3607727
2.5517612829854956e-09	0.8305924	0.35333744	0.4058426	-0.82939136	-0.4266369	0.35996664
2.5599807578855855e-09	0.82909673	0.35473406	0.40777493	-0.823591	-0.4454962	0.3502497
2.5679300424466113e-09	0.8278482	0.35547364	0.409724	-0.81967974	-0.4652723	0.3333835
2.575740426762254e-09	0.8268393	0.35561323	0.41166377	-0.81697166	-0.4855461	0.31049883
2.5835227322254684e-09	0.82606864	0.35518643	0.41357148	-0.81504524	-0.5057463	0.28221565
2.5913361849646485e-09	0.8255431	0.35421625	0.41541427	-0.8136524	-0.5251786	0.24894956