# t (s)	mx ()	my ()	mz ()	m.region1x ()	m.region1y ()	m.region1z ()
0	0	1	0	0	1	0
1.023e-12	-0.017042592	0.999791	0.010997235	-0.03881145	0.99914515	0.014238033
2.047e-12	-0.03369573	0.9991762	0.022038603	-0.07690103	0.99660975	0.029244699
4.095e-12	-0.06575357	0.9968065	0.044199184	-0.15029243	0.9867423	0.061252158
8.191e-12	-0.12472133	0.98803055	0.08868544	-0.2830543	0.950086	0.13121316
1.5406445104892012e-11	-0.2114553	0.96243066	0.16681275	-0.46197593	0.84741473	0.26165843
2.270040716521586e-11	-0.27709323	0.92801243	0.24435328	-0.57216895	0.7238865	0.38549063
3.0156939013017774e-11	-0.32257882	0.8883635	0.32112065	-0.62819993	0.6026753	0.49206588
3.785573159330842e-11	-0.34872866	0.8459588	0.3970122	-0.64869106	0.4949556	0.578092
4.582686631498362e-11	-0.35614234	0.80257165	0.47149906	-0.6497136	0.40322536	0.64439535
5.407583217252176e-11	-0.3456245	0.7591382	0.54389334	-0.642575	0.3244374	0.69411373
6.241333788911881e-11	-0.3190301	0.7165645	0.61201626	-0.63371587	0.2546515	0.7304125
7.087079813553646e-11	-0.27838162	0.67366683	0.67575455	-0.6253304	0.18807325	0.75731266
7.953085579391879e-11	-0.22520228	0.62830424	0.73518705	-0.6173938	0.12023187	0.7773584
8.84856298775731e-11	-0.16081814	0.57764715	0.79007727	-0.6092901	0.048092335	0.7914246
9.778998671517146e-11	-0.087131746	0.518497	0.8394979	-0.6007291	-0.03010234	0.7988107
1.0743683177826905e-10	-0.0073682996	0.44780156	0.8817902	-0.59210277	-0.11496071	0.7975285
1.1742123638091267e-10	0.0741898	0.36289033	0.9150197	-0.58429635	-0.20652242	0.7847061
1.2748919615355935e-10	0.15056193	0.26479182	0.93666035	-0.57833743	-0.30162117	0.75784224
1.3723072600818427e-10	0.21469556	0.15916784	0.94542867	-0.5745122	-0.39442348	0.717005
1.4696992472934796e-10	0.26621282	0.045729727	0.94169825	-0.571839	-0.4854209	0.6611005
1.5675923047707654e-10	0.3038607	-0.07236956	0.9252125	-0.56868315	-0.5721667	0.5906528
1.6641541173065903e-10	0.32751918	-0.1885701	0.8967264	-0.5629287	-0.650417	0.509585
1.762105767840237e-10	0.34010392	-0.30183727	0.85613775	-0.5520854	-0.72037053	0.4193343
1.8587001515240515e-10	0.34499013	-0.40532482	0.8056213	-0.53459215	-0.77912056	0.32669413
1.952288579967353e-10	0.34703016	-0.4951407	0.7479389	-0.51016665	-0.82642007	0.23726031
2.0428165939713026e-10	0.35087356	-0.57045215	0.6851581	-0.47924075	-0.86386544	0.1536201
2.1331466319136174e-10	0.36064383	-0.6329582	0.6168488	-0.44129536	-0.8940402	0.074188635
2.223729221127556e-10	0.37999555	-0.6817357	0.5438348	-0.39614317	-0.917964	-0.0015660798
2.31494558134662e-10	0.412011	-0.7152631	0.46693832	-0.34303066	-0.93611324	-0.075242646
2.408548577669425e-10	0.45977804	-0.7311869	0.38583833	-0.27929464	-0.9481932	-0.15040606
2.500465037062736e-10	0.5216788	-0.7256593	0.30550244	-0.20559542	-0.9519644	-0.2263847
2.588943447042322e-10	0.59378743	-0.6972025	0.22910757	-0.12202402	-0.9447777	-0.3038299
2.676674807833407e-10	0.6739763	-0.6432528	0.15606923	-0.025124595	-0.92186666	-0.38650018
2.7611585618730374e-10	0.7542616	-0.56451726	0.090245515	0.0818384	-0.877427	-0.47255707
2.8466301487073247e-10	0.83169895	-0.4568999	0.030368201	0.20153154	-0.7994057	-0.56590295
2.929361233819514e-10	0.89541435	-0.3268682	-0.018911554	0.32180816	-0.6786735	-0.660126
3.0107286927847335e-10	0.9398558	-0.17760241	-0.05693331	0.4306101	-0.50131726	-0.75045484
3.0929082633542223e-10	0.959986	-0.0115065025	-0.08294321	0.5057278	-0.25019866	-0.8255626
3.1728117116953144e-10	0.9517292	0.15666479	-0.09495079	0.5089253	0.06225911	-0.8584856
3.2497431061801273e-10	0.91698796	0.3162498	-0.09349696	0.41189787	0.39648223	-0.82033455
3.3220925997915375e-10	0.86219597	0.4569601	-0.08051583	0.22266623	0.6818048	-0.696604
3.3931645432175336e-10	0.79127127	0.58068013	-0.05736392	-0.021831691	0.8705907	-0.4911132
3.4710551483307224e-10	0.7000953	0.69514704	-0.021327062	-0.28062898	0.9369054	-0.20756005
3.550954672225723e-10	0.59959596	0.7869688	0.025454683	-0.46599987	0.8807801	0.08284511
3.6262029448271723e-10	0.5055255	0.84956974	0.07668407	-0.5508486	0.7748029	0.31012037
3.6993653105749304e-10	0.42013168	0.88977236	0.13135326	-0.57163465	0.6705498	0.4728427
3.7749595379233286e-10	0.3424887	0.912566	0.19111061	-0.56137574	0.5858065	0.5845332
3.8514720333329705e-10	0.2778623	0.9194647	0.25331977	-0.5453108	0.52729595	0.65158653
3.927876825125099e-10	0.22899611	0.91334015	0.31571072	-0.5394948	0.4873322	0.6865732
4.005776314851077e-10	0.19579145	0.8965951	0.37832567	-0.54893595	0.45254764	0.7026846
4.082442630970245e-10	0.17906758	0.8719532	0.43793136	-0.57000065	0.41390967	0.709694
4.1577826035320213e-10	0.17701688	0.8412786	0.4937325	-0.59527856	0.3669111	0.71478605
4.2329980469498944e-10	0.18776424	0.80505896	0.5460211	-0.61864364	0.3110059	0.7214376
4.309414824877014e-10	0.21002829	0.76284766	0.59504056	-0.6363307	0.24759278	0.7305566
4.3848343742736034e-10	0.24129187	0.7158101	0.63882315	-0.646422	0.1815173	0.74103403
4.4600032436721796e-10	0.27960286	0.6634154	0.67741764	-0.64976954	0.11447311	0.75142264
4.5362310085714625e-10	0.32359323	0.60444975	0.71093714	-0.647882	0.0464684	0.76027346
4.614641748172005e-10	0.37193316	0.5375934	0.7390402	-0.6422881	-0.023163017	0.76604736
4.696019793063074e-10	0.42294702	0.4617977	0.7609052	-0.634454	-0.09525949	0.76698124
4.778709526552194e-10	0.47323853	0.37882262	0.77509975	-0.6260083	-0.16865243	0.7612529
4.863532006616795e-10	0.5210198	0.28882396	0.78096175	-0.61812127	-0.24422652	0.7470535
4.949043909203927e-10	0.5636328	0.19507425	0.7778335	-0.61177576	-0.32049605	0.7230458
5.03492063782166e-10	0.5999194	0.10037044	0.7656608	-0.60724306	-0.39651757	0.68831587
5.122904892103604e-10	0.6303156	0.005679017	0.74416643	-0.60404503	-0.47268885	0.64140564
5.213197810015887e-10	0.65530854	-0.08586552	0.71327484	-0.6010906	-0.5475328	0.58185697
5.303088692563144e-10	0.67570144	-0.16827942	0.67456055	-0.5967614	-0.6170742	0.5125569
5.394981447249976e-10	0.6942765	-0.2406985	0.62796605	-0.58893985	-0.68159777	0.4337797
5.486466653508129e-10	0.7130036	-0.2984916	0.57590175	-0.5759715	-0.7383255	0.3502946
5.576546429557054e-10	0.7338626	-0.3394803	0.5205603	-0.55686986	-0.78660136	0.26593298
5.667385778433199e-10	0.7588941	-0.36317003	0.4621997	-0.53042865	-0.8279542	0.18083698
5.757930094012094e-10	0.7884811	-0.36777145	0.40308386	-0.4963504	-0.8624246	0.097113
5.847942311527799e-10	0.82201934	-0.3524512	0.34503138	-0.45423007	-0.8905272	0.014932232
5.937437768926426e-10	0.85782534	-0.31689858	0.28969973	-0.40327215	-0.91242796	-0.06677181
6.027261217258956e-10	0.8935145	-0.26083505	0.23827896	-0.34162325	-0.9275147	-0.15051198
6.118314052923891e-10	0.9257694	-0.18414083	0.19212583	-0.26659694	-0.9334509	-0.23932143
6.20953393403236e-10	0.9499514	-0.089553565	0.15363294	-0.1770592	-0.92547965	-0.33444494
6.302416449066782e-10	0.9620794	0.021070601	0.12398936	-0.070370905	-0.8953244	-0.4395415
6.395728115521211e-10	0.95835006	0.14120783	0.10518136	0.05050704	-0.8305509	-0.55446506
6.488936670248348e-10	0.9372138	0.2635867	0.09814182	0.17687318	-0.71418667	-0.6771258
6.582583828703797e-10	0.89917564	0.38196892	0.103038564	0.2898348	-0.5240709	-0.8007791
6.671851666943949e-10	0.84990877	0.4847406	0.11840206	0.34960398	-0.25854424	-0.90049386
6.759864080118985e-10	0.7928644	0.5722064	0.14280866	0.31417942	0.077051386	-0.9462301
6.837912147920829e-10	0.73895335	0.6361317	0.17107949	0.1710454	0.39306676	-0.90345275
6.909700911498755e-10	0.6895489	0.68286	0.20160654	-0.047100067	0.6353861	-0.7707018
6.982011495670821e-10	0.64241844	0.71822894	0.23578227	-0.3007918	0.77713346	-0.5526498
7.062807274550781e-10	0.5953655	0.7444537	0.2768691	-0.5428474	0.79942906	-0.2569716
7.143658942191973e-10	0.556269	0.75772923	0.31980222	-0.6887479	0.72434026	0.027792135
7.217955555312436e-10	0.5285891	0.7596269	0.35981724	-0.74122596	0.6264031	0.24090034
7.293826744017454e-10	0.5090412	0.75249195	0.40031576	-0.74417025	0.5352635	0.39946657
7.37221043190109e-10	0.49814418	0.7365546	0.44089872	-0.72660106	0.46435046	0.50631434
7.450791862398974e-10	0.49627936	0.7127816	0.47949594	-0.7115437	0.41300875	0.56839347
7.530383885930103e-10	0.50279886	0.68155074	0.5157192	-0.70948195	0.3687502	0.6004691
7.606677653260359e-10	0.5159281	0.6454826	0.547121	-0.7193314	0.3225971	0.61509097
7.680503453763443e-10	0.53390205	0.6053742	0.57392824	-0.73405	0.26913643	0.62331736
7.752867215691549e-10	0.5554069	0.561556	0.5964027	-0.7473135	0.20823511	0.63080776
7.824799240640526e-10	0.5794751	0.514075	0.61470217	-0.755347	0.14211309	0.63954353
7.897559663092961e-10	0.6054526	0.4626538	0.62886333	-0.75682795	0.07299875	0.64936465
7.96937911927563e-10	0.6317095	0.4092394	0.63837373	-0.7523558	0.0051124766	0.65860474
8.039867009686913e-10	0.6572465	0.35502574	0.6432906	-0.7437804	-0.060035475	0.66560316
8.110405248652697e-10	0.68191767	0.29987186	0.64380455	-0.7326777	-0.12365355	0.6691253
8.182206274511137e-10	0.7056409	0.24379632	0.63985276	-0.7201145	-0.18721226	0.66798747
8.255994512399219e-10	0.7282609	0.18736629	0.63123	-0.7068019	-0.25176942	0.66095066
8.331505613608984e-10	0.74947	0.13212098	0.61786443	-0.69331145	-0.31727755	0.64689636
8.40747609417651e-10	0.768947	0.08037693	0.6001312	-0.68015224	-0.38245058	0.6252712
8.485267347069776e-10	0.78726065	0.032675557	0.57798046	-0.667191	-0.4478835	0.5950707
8.563231306037579e-10	0.80438626	-0.008549926	0.5522865	-0.6546093	-0.51138175	0.5566135
8.640384696803665e-10	0.82057464	-0.041795705	0.52404106	-0.64221334	-0.5713787	0.5107802
8.718466472048287e-10	0.8365928	-0.066884905	0.4932925	-0.62910455	-0.628489	0.45714974
8.798487050069401e-10	0.8529093	-0.08290973	0.4602971	-0.61418104	-0.6826229	0.3956177
8.876758713800888e-10	0.86884266	-0.088569134	0.42736322	-0.59709114	-0.7308265	0.3302191
8.9548579309684e-10	0.8845389	-0.08405827	0.39465043	-0.5765378	-0.77399236	0.26113278
9.034216316418371e-10	0.89983875	-0.069057845	0.36237937	-0.5510758	-0.8127219	0.18825005
9.112530614823715e-10	0.91361976	-0.044232935	0.3322845	-0.52054083	-0.84589136	0.11460753
9.189616375522033e-10	0.92507875	-0.010651523	0.30509648	-0.48443514	-0.8736511	0.040924944
9.266665776417318e-10	0.93354076	0.031088261	0.2810065	-0.44152945	-0.8963878	-0.033927795
9.344715830118684e-10	0.9381549	0.08045955	0.26035747	-0.39017874	-0.9137566	-0.11146128
9.42257693706489e-10	0.9380018	0.13526067	0.2440369	-0.32998988	-0.92418885	-0.1913568
9.500878281119894e-10	0.93250203	0.19412616	0.23232993	-0.25937808	-0.9255252	-0.2753202
9.579507523645413e-10	0.9213624	0.25500423	0.2255769	-0.17753382	-0.9140266	-0.3643665
9.658450444252924e-10	0.90469325	0.31580928	0.22393441	-0.08440893	-0.8840699	-0.45942864
9.738284125025335e-10	0.8828526	0.37491542	0.22743128	0.019071415	-0.82705796	-0.56164074
9.819537465660621e-10	0.856511	0.4306839	0.23605826	0.12858272	-0.7303479	-0.670768
9.902002693700049e-10	0.82693756	0.4810961	0.24960199	0.23200227	-0.57830584	-0.78207636
9.984891211573383e-10	0.79596454	0.52421814	0.2674773	0.30542138	-0.35744867	-0.88254213
1.0068758654700826e-09	0.7650744	0.5593161	0.28918034	0.3125132	-0.062342733	-0.9478356
1.0151095369723869e-09	0.7367583	0.5850427	0.31323728	0.21504036	0.26980397	-0.93855387
1.022508604703163e-09	0.71411157	0.60075873	0.3365084	0.028585779	0.54706836	-0.8365136
1.029658870783924e-09	0.6954844	0.6094512	0.35990673	-0.2088221	0.73362315	-0.6465149
1.0372831545423822e-09	0.67970073	0.61199385	0.38524598	-0.4547714	0.80778253	-0.3747891
1.045817376771658e-09	0.6674258	0.6071158	0.41335446	-0.645509	0.7617041	-0.0547411
1.0536108952153195e-09	0.6612871	0.59608215	0.4381408	-0.7232228	0.6616624	0.19763023
1.0611984404590423e-09	0.6598129	0.5798404	0.46092215	-0.73301554	0.5607748	0.38488442
1.0690400732022022e-09	0.66260993	0.55790985	0.48258036	-0.70917714	0.47781253	0.51837283
1.0769489590006736e-09	0.6693658	0.53109044	0.5020417	-0.67912793	0.41944802	0.60235244
1.0848297115838112e-09	0.67940116	0.5003026	0.5186736	-0.6599977	0.37703174	0.6497894
1.0927979760161314e-09	0.69220024	0.46573484	0.5323732	-0.6563062	0.33669236	0.6751606
1.1003530293444011e-09	0.7061467	0.43044278	0.5422472	-0.6635659	0.29146966	0.6889334
1.1076330345942563e-09	0.7206935	0.39477098	0.54875785	-0.6740463	0.23806892	0.6991849
1.1147520352998345e-09	0.735507	0.3589468	0.55220735	-0.68228745	0.17734739	0.7091496
1.1218825530250053e-09	0.7505408	0.32278648	0.5527621	-0.68559575	0.11079579	0.71940887
1.1290883080268268e-09	0.7656163	0.28664988	0.5504206	-0.6832766	0.04054848	0.7289517
1.1361187193928255e-09	0.7799823	0.2524599	0.5454221	-0.6764432	-0.02902715	0.73584765
1.1430932544978329e-09	0.7937489	0.22023283	0.53795785	-0.66667664	-0.098267555	0.7387594
1.1501433319457683e-09	0.8070848	0.19000134	0.5280665	-0.65518916	-0.16837655	0.7363627
1.1573755583545364e-09	0.82011884	0.16206783	0.5157136	-0.642797	-0.24055952	0.72716284
1.1647756609773936e-09	0.83277214	0.13732839	0.50106615	-0.63014305	-0.31467894	0.7097163
1.1721365157521941e-09	0.8446834	0.117124386	0.48482996	-0.6178483	-0.3882644	0.6835977
1.1796017898951642e-09	0.8560809	0.10158881	0.4670565	-0.60563755	-0.46192276	0.6477804
1.187276928747575e-09	0.8670562	0.091198035	0.44785234	-0.59304154	-0.53545225	0.6011415
1.1948836761003513e-09	0.8771161	0.08673273	0.42835087	-0.5799365	-0.6048277	0.545534
1.2024640426168045e-09	0.8861967	0.08816195	0.4089211	-0.5654333	-0.6692801	0.4817192
1.2101699668243093e-09	0.89426035	0.095575534	0.38964975	-0.54816103	-0.7289721	0.40959558
1.2178790414663472e-09	0.90089077	0.1087818	0.371323	-0.5271735	-0.7820468	0.33180177
1.225468304400472e-09	0.9057277	0.12705496	0.35464323	-0.50180626	-0.8273631	0.25146127
1.23308079971617e-09	0.9086021	0.15009718	0.33966213	-0.47074994	-0.86572474	0.16875017
1.2408274094717554e-09	0.9092201	0.17768045	0.3265704	-0.4326213	-0.8974428	0.08367662
1.2485676739665915e-09	0.9072976	0.20855314	0.31595743	-0.38731736	-0.92171776	-0.0015502593
1.2562797955976017e-09	0.90273786	0.24165055	0.3080644	-0.3343913	-0.9382236	-0.08671313
1.2640491287872408e-09	0.89548016	0.27632192	0.30297047	-0.2724731	-0.9462011	-0.17345586
1.2718638645781076e-09	0.88562965	0.31147447	0.30080855	-0.20060727	-0.943568	-0.26285708
1.2797204484237062e-09	0.8734455	0.34604055	0.30161095	-0.11785272	-0.92675734	-0.35627264
1.2876812536008415e-09	0.8592144	0.3792618	0.30535945	-0.023068313	-0.88972175	-0.45564115
1.2957340373153241e-09	0.843468	0.41009843	0.31195933	0.082443476	-0.82345235	-0.56117934
1.30384124370844e-09	0.8269181	0.43754596	0.3211745	0.19319503	-0.7159587	-0.6707537
1.3120588017415772e-09	0.8101605	0.46105894	0.33278763	0.29791692	-0.5510084	-0.7794163
1.3204662372797252e-09	0.7937856	0.48017132	0.34660107	0.37323055	-0.31044424	-0.874172
1.3289233783770242e-09	0.7788018	0.4940833	0.36197847	0.37839973	0.005360866	-0.9255266
1.336995437914625e-09	0.76643646	0.5023087	0.3775693	0.2793117	0.34498698	-0.89593107
1.3442988205210883e-09	0.75721264	0.50554204	0.39206117	0.09346845	0.625306	-0.7745032
1.351428064299352e-09	0.750205	0.50495684	0.40623504	-0.14277199	0.8112883	-0.56651956
1.3591567648485042e-09	0.74495184	0.50034356	0.421286	-0.38828775	0.8788874	-0.27637458
1.3678778625875595e-09	0.7419733	0.49050987	0.43744525	-0.5737879	0.81687164	0.057485927
1.3756683932179956e-09	0.7418635	0.4779544	0.4507787	-0.6407428	0.70308065	0.30833313
1.383181352859421e-09	0.74386996	0.4628577	0.4623691	-0.640259	0.5916028	0.48995113
1.3908759707671805e-09	0.74784887	0.4447661	0.47271317	-0.6063693	0.5004139	0.6179767
1.3985842090408405e-09	0.75351644	0.42442524	0.48132992	-0.56579816	0.43660572	0.6994618
1.4062456838736518e-09	0.7605244	0.40249032	0.48801053	-0.53540725	0.3924693	0.7478479
1.414028194716391e-09	0.7687393	0.3789766	0.49276522	-0.52069867	0.35463047	0.77654517
1.4215863881917918e-09	0.7774898	0.35547137	0.49536535	-0.51990056	0.3140074	0.79433274
1.4288428320729897e-09	0.7863654	0.33276865	0.4959804	-0.52602327	0.26583868	0.8077519
1.435917838257639e-09	0.79526925	0.31095114	0.4948333	-0.5330671	0.20900203	0.81974614
1.44298313810301e-09	0.80424213	0.28990108	0.49202707	-0.5375293	0.14376083	0.83080137
1.4501462491220915e-09	0.8132798	0.2697302	0.4875816	-0.53787553	0.0711245	0.83993316
1.4571805623354195e-09	0.82198083	0.25145695	0.48176894	-0.5342628	-0.004633005	0.8452299
1.4641819366153347e-09	0.830375	0.23513149	0.47470433	-0.52780074	-0.08307428	0.8452159
1.4712776129731837e-09	0.83852994	0.22080135	0.46641275	-0.5195997	-0.16484103	0.838256
1.4785796832587174e-09	0.84647447	0.20867492	0.45689294	-0.5105614	-0.2507184	0.8223387
1.485911904285832e-09	0.8539186	0.19941783	0.44655395	-0.50162786	-0.33793515	0.7961688
1.4932327100430466e-09	0.8607398	0.19327492	0.4356944	-0.49312454	-0.42489222	0.758924
1.5006704300275923e-09	0.8669578	0.19031765	0.42437097	-0.48469558	-0.51160455	0.7092068
1.5082727285922101e-09	0.8724721	0.19074935	0.41277006	-0.4755669	-0.59667206	0.64610016
1.5159247474868048e-09	0.8770534	0.1946549	0.40134758	-0.46462625	-0.6766523	0.57085335
1.523605611314075e-09	0.880558	0.20192705	0.3904156	-0.45026624	-0.7493523	0.48509258
1.5314353588711845e-09	0.88288546	0.21254446	0.38009214	-0.43030977	-0.814054	0.3894853
1.5392028454494415e-09	0.8838495	0.22593108	0.37091467	-0.403483	-0.86777115	0.28929618
1.5469452408087686e-09	0.8834003	0.24168277	0.36303365	-0.3684266	-0.9103762	0.18702042
1.5547777157403671e-09	0.88147354	0.25957	0.3565254	-0.32365838	-0.94220245	0.08367632
1.5627951191583497e-09	0.87797654	0.2793404	0.35153067	-0.26776224	-0.9630296	-0.020097839
1.5708776202112109e-09	0.8729606	0.30013946	0.34829834	-0.20105475	-0.9717475	-0.121874526
1.5790102001364976e-09	0.8665436	0.32129413	0.346916	-0.12347226	-0.9670323	-0.22187302
1.5871617444949996e-09	0.8589416	0.34208223	0.34739935	-0.035122268	-0.9462098	-0.32115173
1.5953655404728868e-09	0.8503804	0.36197102	0.3497053	0.06443574	-0.9041966	-0.4219273
1.6036889336795935e-09	0.8410904	0.3805249	0.35378438	0.17524746	-0.8319888	-0.52620006
1.6121945954990725e-09	0.8313462	0.39728573	0.35957873	0.29432768	-0.7152735	-0.63372564
1.620818152622369e-09	0.82161283	0.4115835	0.36689278	0.40948844	-0.5366955	-0.7376758
1.6295624072011425e-09	0.81229717	0.42298555	0.3755028	0.49590945	-0.2781225	-0.82257175
1.6381022065783923e-09	0.8040886	0.43091246	0.38476807	0.51185393	0.051248245	-0.85747445
1.64615361907629e-09	0.797412	0.4354005	0.39399835	0.42603487	0.4010597	-0.81083506
1.6534804869081946e-09	0.79239047	0.43696696	0.4025898	0.2516263	0.6932054	-0.6751476
1.6606409974917765e-09	0.7885498	0.43622994	0.4109692	0.022412952	0.8894579	-0.45597053
1.6683946465040017e-09	0.7856416	0.43300855	0.41981697	-0.22134575	0.96200806	-0.15848748
1.6768339186818914e-09	0.7839754	0.42682675	0.42893818	-0.40519965	0.8987822	0.16670346
1.6847242290464138e-09	0.7837981	0.41875738	0.43677157	-0.47844145	0.7711922	0.41988167
1.692142017490267e-09	0.7847804	0.4093923	0.44335976	-0.4794137	0.64372873	0.5964576
1.6996522173174363e-09	0.7868155	0.39840975	0.44913173	-0.4432834	0.5352274	0.71904397
1.7071952215689495e-09	0.7897988	0.386138	0.45391172	-0.39535338	0.45485094	0.7980013
1.7147397775917105e-09	0.79359424	0.37291914	0.45759022	-0.35291517	0.39825854	0.8466536
1.7224239752860094e-09	0.7981508	0.35880974	0.4601456	-0.32361454	0.3541323	0.8773732
1.7300500809373931e-09	0.80321556	0.34449676	0.46146405	-0.3091458	0.3124778	0.89812434
1.7374023009899467e-09	0.80847555	0.33071977	0.46158618	-0.30537635	0.26644242	0.91407454
1.7446193069995766e-09	0.81387794	0.31750742	0.46063286	-0.30673388	0.21170543	0.92781484
1.7518368423699883e-09	0.81940717	0.3048756	0.4586615	-0.30925578	0.14649051	0.93949056
1.7590675835283035e-09	0.82497144	0.2930616	0.4557315	-0.31066436	0.07134725	0.9477105
1.7662494663726942e-09	0.83042985	0.28239614	0.4519587	-0.31020743	-0.011597762	0.9504813
1.7734519988563193e-09	0.8357501	0.27298072	0.4474118	-0.30818534	-0.10151817	0.945778
1.780801723567267e-09	0.8409387	0.26488394	0.44210267	-0.30530918	-0.19857857	0.93118405
1.7882638231125998e-09	0.84587854	0.258386	0.4361574	-0.30239552	-0.30077344	0.90431345
1.7957615534918266e-09	0.85043216	0.25372893	0.42977116	-0.2999807	-0.40501451	0.8634759
1.8033372254193548e-09	0.85454124	0.2510096	0.42305985	-0.2979641	-0.50934875	0.8070481
1.811020059069752e-09	0.85813105	0.2503227	0.4161585	-0.29547805	-0.61113745	0.73395884
1.8187671551116344e-09	0.8610925	0.25172	0.40927675	-0.29082394	-0.7064472	0.6448339
1.8266610821041407e-09	0.86336505	0.25522238	0.4025215	-0.28142774	-0.7928001	0.54009336
1.8347089295272859e-09	0.8648502	0.2608095	0.3960772	-0.26412156	-0.86685336	0.42216408
1.8428308443224604e-09	0.86545396	0.2683056	0.39019337	-0.23592722	-0.9252355	0.2961111
1.8509926413719163e-09	0.8651306	0.27745444	0.38505688	-0.1945595	-0.9662367	0.16713014
1.8592827833789373e-09	0.8638493	0.28808662	0.38076413	-0.13798882	-0.9893937	0.038330123
1.8677852593893573e-09	0.86157155	0.3000183	0.37743282	-0.06468625	-0.9937545	-0.087811425
1.8763501931408013e-09	0.85836244	0.3126757	0.37524548	0.023873284	-0.9778317	-0.20682114
1.8849820060656328e-09	0.85431147	0.32564646	0.37426114	0.12652199	-0.9392104	-0.3185145
1.893686387374282e-09	0.84954715	0.33850968	0.37450236	0.24161187	-0.8726404	-0.4240098
1.902515959757445e-09	0.8442055	0.35091195	0.3759648	0.3668756	-0.7680247	-0.52468026
1.911552734200347e-09	0.8384304	0.36252782	0.37863946	0.4964886	-0.6084558	-0.61895716
1.9204047627868594e-09	0.8327019	0.3725085	0.38228822	0.6089442	-0.38462037	-0.6936428
1.929144855106323e-09	0.8271972	0.38073945	0.38673875	0.677165	-0.08803656	-0.7304927
1.9377811647313045e-09	0.8221033	0.38709655	0.39179784	0.66308653	0.26608998	-0.69959766
1.9457161584649555e-09	0.8178741	0.39127156	0.3968734	0.55048037	0.5979826	-0.582453
1.953206187446682e-09	0.81438315	0.3936981	0.40190628	0.362947	0.8490976	-0.38346028
1.9607919940374663e-09	0.8114245	0.3946462	0.4071137	0.14006644	0.9832007	-0.11551578
1.968900952360385e-09	0.8089707	0.39400962	0.41265804	-0.06261617	0.97949606	0.19075872
1.977021173420333e-09	0.8072908	0.39173716	0.4180386	-0.18147033	0.86870724	0.46077037
1.984731550271674e-09	0.80642945	0.38816833	0.42285985	-0.21541515	0.7240874	0.6551887
1.9921697746791773e-09	0.80626714	0.3835422	0.4271405	-0.19718602	0.5883596	0.784179
1.9996038508700327e-09	0.8067352	0.3778929	0.43096715	-0.15327288	0.4747684	0.86665386
2.0070063652406636e-09	0.80778825	0.37139916	0.434255	-0.10252662	0.38659516	0.91653
2.0144326423066327e-09	0.8093819	0.36417928	0.4369688	-0.055813923	0.31772807	0.9465276
2.0219980709521537e-09	0.8114957	0.3562809	0.43908364	-0.017623458	0.258843	0.96571803
2.029577980898708e-09	0.81403834	0.34801227	0.44051263	0.010543675	0.20241918	0.9791544
2.0371004649036333e-09	0.8169061	0.33965212	0.44123262	0.030315083	0.14221185	0.9892365
2.044615886043893e-09	0.82003576	0.33134177	0.4412585	0.04436204	0.07361743	0.9961289
2.0520510036043205e-09	0.82331574	0.323348	0.4406187	0.054618753	-0.0046017068	0.99830914
2.0594672122876556e-09	0.82669526	0.3157757	0.43935242	0.062418744	-0.093308285	0.99348795
2.0669599404796835e-09	0.83014584	0.30869788	0.43748128	0.06832088	-0.19293012	0.9786415
2.0746048418928873e-09	0.8336308	0.30222625	0.4350193	0.072383925	-0.30290544	0.95007265
2.0823370961934538e-09	0.83704686	0.29659355	0.43203583	0.074573494	-0.41944754	0.904494
2.090223227346936e-09	0.8403467	0.29191855	0.42857146	0.07539247	-0.53928596	0.8384782
2.098155604485805e-09	0.84341025	0.2884041	0.42475802	0.07627135	-0.65527976	0.7511911
2.106166813066514e-09	0.8461801	0.28613132	0.4206822	0.079880945	-0.7616758	0.64257705
2.114335511451267e-09	0.8486089	0.28516805	0.41641244	0.09017812	-0.852895	0.5136446
2.122730633861021e-09	0.8506336	0.2855969	0.41203207	0.112254016	-0.9229352	0.36737984
2.1312958801181298e-09	0.8521587	0.2874662	0.40770328	0.1511235	-0.96538246	0.2111787
2.140008942207757e-09	0.85311246	0.29075235	0.40357718	0.21060655	-0.9758231	0.053520426
2.148825252032779e-09	0.8534421	0.29535133	0.39981183	0.29198235	-0.95128846	-0.09655887
2.1577821815787687e-09	0.85311896	0.30114108	0.39652148	0.39442092	-0.8888271	-0.23245946
2.166914678386764e-09	0.8521259	0.30796406	0.39381883	0.5142176	-0.7834468	-0.34857598
2.176237752888937e-09	0.8504669	0.31560612	0.39181513	0.64339197	-0.6270534	-0.43892097
2.1856925957675825e-09	0.8481928	0.32374367	0.39061195	0.7662822	-0.4106819	-0.49398768
2.194686814394196e-09	0.8455671	0.3315549	0.39025885	0.85368085	-0.14764692	-0.4993528
2.2034383327622206e-09	0.8426783	0.33896074	0.39064556	0.88412154	0.1504652	-0.4423218
2.2119458571630465e-09	0.8396553	0.3457526	0.39168054	0.8399136	0.44453293	-0.31127733
2.2202616294444903e-09	0.83659583	0.35181403	0.39327186	0.7255337	0.679422	-0.10900091
2.228100712167876e-09	0.83370703	0.3568609	0.39524022	0.58064413	0.80392134	0.12798029
2.235828633461125e-09	0.8309371	0.36109206	0.39756215	0.4441374	0.8165575	0.36849725
2.243560256124275e-09	0.82831854	0.36450288	0.4001946	0.3471508	0.7375309	0.57916343
2.2511503990667746e-09	0.82596225	0.36699417	0.40300775	0.3022002	0.60668	0.7352386
2.2585102974531055e-09	0.8239333	0.3685671	0.40588197	0.3007058	0.4619152	0.83436775
2.2657068395272067e-09	0.82223433	0.3692917	0.40876538	0.3275318	0.32363844	0.88764215
2.2728773725476884e-09	0.8208529	0.36922053	0.4116462	0.37076145	0.1985083	0.907218
2.279941827788634e-09	0.8198174	0.36839858	0.41443193	0.42133847	0.089931846	0.90239453
2.2868938677696128e-09	0.81912625	0.36689666	0.4170674	0.47400516	-0.0035673375	0.880488
2.2938120046596393e-09	0.81876576	0.36476663	0.41953558	0.52671945	-0.085106745	0.8457433
2.300778692819674e-09	0.81872946	0.36203954	0.4218194	0.57889736	-0.15679038	0.80014324
2.3078419073058142e-09	0.8190168	0.3587485	0.42388636	0.6303499	-0.21902105	0.74469966
2.3150398373186717e-09	0.81962776	0.35493246	0.4256977	0.6810851	-0.27083856	0.680155
2.3223962613423765e-09	0.8205585	0.35064587	0.4272089	0.7310729	-0.310014	0.60765207
2.3297851885175202e-09	0.8217732	0.34605175	0.4283556	0.77923495	-0.33309203	0.5307298
2.337271702778462e-09	0.8232519	0.3412144	0.42912138	0.825558	-0.3375005	0.45213553
2.3449146309179588e-09	0.82497525	0.33620608	0.4294843	0.8694339	-0.3204777	0.37592265
2.352718557414818e-09	0.8269084	0.33114535	0.4294209	0.90912586	-0.28023797	0.30812514
2.3606902789303447e-09	0.82901	0.3261608	0.42891738	0.94197166	-0.21737611	0.25580642
2.3688874243179016e-09	0.83124566	0.321362	0.4279639	0.9646345	-0.13558488	0.2260272
2.3772711203360293e-09	0.83354807	0.3169254	0.42657244	0.9733677	-0.044079307	0.22492187
2.3857829652068517e-09	0.83583796	0.31302774	0.42478293	0.96614075	0.043203767	0.25431722
2.3942330921990504e-09	0.83800334	0.3098622	0.42269468	0.9447032	0.10996186	0.30889562
2.402560957511474e-09	0.8399775	0.30750245	0.42040202	0.9143133	0.14532012	0.37800443
2.410818307407618e-09	0.84173113	0.30595598	0.4179706	0.8812343	0.14525187	0.4497863
2.419047926211417e-09	0.8432362	0.30522427	0.4154639	0.85115796	0.11140563	0.51294154
2.427273306822762e-09	0.8444648	0.3053005	0.41294807	0.8281268	0.050141748	0.5582915
2.435293512122839e-09	0.84537196	0.30613014	0.41055298	0.81443596	-0.026943399	0.5796219
2.4432555807889023e-09	0.84597164	0.3076502	0.4082945	0.8098584	-0.11050577	0.57610637
2.451287085419675e-09	0.84626293	0.30982685	0.4061942	0.8140216	-0.19207987	0.5481274
2.45934143035473e-09	0.84623736	0.31258184	0.40431935	0.8265132	-0.26197946	0.4982076
2.467319765209771e-09	0.8459048	0.3157864	0.4027344	0.846515	-0.31142727	0.43174216
2.475141296658965e-09	0.8452964	0.3192917	0.4014774	0.8726619	-0.3342497	0.35598463
2.4829183491677585e-09	0.84443474	0.32303426	0.4005433	0.9035262	-0.3268431	0.27714446
2.4907499012448595e-09	0.8433362	0.32695824	0.39993638	0.9366593	-0.28605258	0.20209475
2.4986826390494178e-09	0.8420216	0.33098376	0.39966983	0.9676655	-0.21031386	0.13925192
2.5065778720826063e-09	0.84055066	0.33493462	0.39975023	0.98966694	-0.10406235	0.09864013
2.5143617888941235e-09	0.8389843	0.33867607	0.4001562	0.9959063	0.022574816	0.08752492
2.5221317051761732e-09	0.83734936	0.34216768	0.40086624	0.9814132	0.15733187	0.10988377
2.5299708513408304e-09	0.8356732	0.34536114	0.40186507	0.9441452	0.28424424	0.1667149
2.5378718808305594e-09	0.8340032	0.34817132	0.40312523	0.8876633	0.38457987	0.2532768
2.5457952703761602e-09	0.8323939	0.35051572	0.40460464	0.82158613	0.44346082	0.35823804
2.5537398128083933e-09	0.83088946	0.35234204	0.40625995	0.7578787	0.4554022	0.46714586
2.5616955658046428e-09	0.829532	0.35361195	0.40804148	0.7067243	0.4243447	0.56610155
2.5697465678839925e-09	0.8283447	0.35431033	0.40991893	0.6733003	0.35968927	0.64598
2.577849896024644e-09	0.82736784	0.35441622	0.41183108	0.6588449	0.273393	0.70084107
2.586000853054844e-09	0.82662725	0.3539335	0.41372398	0.66098714	0.17623971	0.7294042
2.5942931217599e-09	0.826137	0.35286778	0.4155653	0.67624533	0.07540599	0.7327998
2.6026334192810953e-09	0.8259173	0.351259	0.41728118	0.70093644	-0.021628343	0.7128837
2.6110905845815533e-09	0.8259714	0.34914136	0.4188351	0.73236144	-0.110271186	0.6719103
2.619590699530719e-09	0.8262953	0.34659684	0.42016742	0.7681774	-0.18448126	0.6130601
2.6281645947936665e-09	0.82687604	0.3436968	0.42124465	0.80703604	-0.23904295	0.5399306
2.63690826280919e-09	0.82770336	0.34049538	0.42204174	0.84813035	-0.26840723	0.4567418
2.6457816905729477e-09	0.82875	0.33710515	0.42252314	0.8895669	-0.2665016	0.37099552
2.6547577561173296e-09	0.8299795	0.33364737	0.42266893	0.928306	-0.2296821	0.2923882
2.6637788702210216e-09	0.83134156	0.33026016	0.42247576	0.95959455	-0.15897492	0.23217054
2.672911424371034e-09	0.8327993	0.32703483	0.42195112	0.97782975	-0.060526315	0.2004519
2.682261707120285e-09	0.8343207	0.32405445	0.42110115	0.9771628	0.05340009	0.20565856
2.6917377046807518e-09	0.83583736	0.3214656	0.41995922	0.9545299	0.16118962	0.25076884
2.701104798176634e-09	0.8372599	0.31941402	0.4186036	0.9144118	0.23829703	0.32719943
2.7100613174423473e-09	0.8385056	0.31797892	0.41714907	0.8682797	0.27017456	0.41604048