# t (s)	mx ()	my ()	mz ()	m.region1x ()	m.region1y ()	m.region1z ()
0	0	1	0	0	1	0
1.023e-12	-0.017045263	0.999791	0.010997504	-0.082477845	0.9964041	0.019398771
2.047e-12	-0.03370101	0.9991756	0.022039132	-0.16290244	0.98579574	0.04086186
4.095e-12	-0.06576367	0.99680394	0.044200134	-0.31344983	0.94550323	0.08816379
8.191e-12	-0.12473875	0.98802197	0.08868636	-0.55615807	0.8095329	0.18799841
1.263793167478082e-11	-0.1807963	0.9735006	0.13693804	-0.7243131	0.6283001	0.28390124
1.7242317378093695e-11	-0.2300541	0.9543648	0.1865052	-0.81714606	0.45192015	0.35779154
2.24668209215908e-11	-0.2753495	0.9291738	0.2418927	-0.86362827	0.2907728	0.41176903
2.8574169472591588e-11	-0.31468558	0.89695275	0.3050569	-0.88172925	0.15578449	0.44522947
3.509660290350333e-11	-0.34166807	0.86114514	0.3702141	-0.8868267	0.05969712	0.4581619
4.1801102369096885e-11	-0.35476592	0.82430536	0.43438664	-0.8897767	-0.0059378343	0.45627832
4.88582247775619e-11	-0.35432065	0.7863933	0.49862593	-0.89426875	-0.05441735	0.4441132
5.61542932333825e-11	-0.34044158	0.74839646	0.56130654	-0.90022326	-0.093240805	0.42521444
6.355389274452356e-11	-0.31435385	0.71076316	0.62087363	-0.9062737	-0.12714274	0.40299076
7.11252411421267e-11	-0.27704215	0.6723355	0.67752266	-0.9113344	-0.15897518	0.37960285
7.890805106161088e-11	-0.22943774	0.63163364	0.7310475	-0.91484535	-0.18953821	0.35643047
8.691763663641243e-11	-0.1727368	0.58687633	0.7808952	-0.9167594	-0.21872339	0.33411205
9.515232775023782e-11	-0.10861303	0.53606683	0.82623816	-0.91735655	-0.24625382	0.31263673
1.0359074111722055e-10	-0.03941468	0.47725612	0.8659982	-0.9170257	-0.272003	0.29156125
1.122495465334174e-10	0.03225514	0.40843794	0.89913094	-0.9161073	-0.29617304	0.2701121
1.2120186685298344e-10	0.103697464	0.32752255	0.9245199	-0.9148277	-0.3191447	0.247325
1.3032575173826533e-10	0.17027153	0.23508014	0.940408	-0.91335106	-0.34071028	0.22280118
1.3971583671342685e-10	0.22901252	0.13090622	0.9456125	-0.911739	-0.3610525	0.19572404
1.4939342831048902e-10	0.27676535	0.016803933	0.93874705	-0.9099978	-0.38000432	0.16563496
1.59123738613039e-10	0.3107435	-0.1009005	0.9192955	-0.90811396	-0.39688835	0.13319112
1.687949475432204e-10	0.33143365	-0.21653172	0.8878831	-0.9060078	-0.4114133	0.09907673
1.7863347278331028e-10	0.34179753	-0.32853627	0.8443829	-0.9035046	-0.42383316	0.06299448
1.88275085762669e-10	0.34553406	-0.4293127	0.7915687	-0.9006008	-0.4337217	0.02691311
1.97527205120229e-10	0.3476268	-0.51522446	0.7326191	-0.897344	-0.44117063	-0.007825909
2.0655198013655297e-10	0.35259372	-0.5872197	0.66850835	-0.8937105	-0.44663614	-0.041425996
2.1561445839620808e-10	0.36450005	-0.6465323	0.5987417	-0.88961065	-0.45048302	-0.07467496
2.2465445835088065e-10	0.3867079	-0.6914764	0.5249361	-0.88506615	-0.4528303	-0.10733817
2.3384939467731443e-10	0.422528	-0.7209523	0.44677195	-0.8799484	-0.45381773	-0.14021295
2.431942337420944e-10	0.47409767	-0.7317211	0.36549562	-0.87417513	-0.4534406	-0.17357405
2.522864333955033e-10	0.53879595	-0.72056067	0.28612718	-0.8679366	-0.45168954	-0.20634261
2.6108360479098167e-10	0.6130538	-0.68609536	0.2106904	-0.86128485	-0.4484906	-0.23864251
2.697348414221692e-10	0.69342685	-0.62634224	0.13962983	-0.85420895	-0.44349557	-0.27115953
2.781706168716392e-10	0.7733191	-0.54110205	0.0753229	-0.84699893	-0.4362208	-0.30358833
2.867175876913248e-10	0.8486212	-0.42682007	0.017441237	-0.8398057	-0.42547768	-0.33691987
2.9496087707334496e-10	0.9081553	-0.2915055	-0.029204879	-0.8336575	-0.410693	-0.36893028
3.030781913951566e-10	0.9469596	-0.13827585	-0.06426204	-0.82933664	-0.3904963	-0.39925402
3.1137373222038334e-10	0.960255	0.0318855	-0.0871332	-0.8280545	-0.3625816	-0.4271548
3.192404680793409e-10	0.9450425	0.19757633	-0.09555452	-0.831301	-0.3282061	-0.44803002
3.269340663782756e-10	0.9038849	0.35513592	-0.090833485	-0.84018254	-0.28686166	-0.45960873
3.347812069443994e-10	0.8380877	0.5031297	-0.07305748	-0.8562341	-0.2379241	-0.45788002
3.4271435704575684e-10	0.75278693	0.6329465	-0.042729296	-0.8798417	-0.18461254	-0.43729144
3.506148605790563e-10	0.6564577	0.7381072	-0.0017249046	-0.90915716	-0.13281542	-0.3941148
3.586811237834518e-10	0.55456483	0.8189882	0.04922965	-0.9412302	-0.087610275	-0.32573614
3.6685090638430245e-10	0.45552096	0.87455976	0.10788498	-0.9703529	-0.05519738	-0.23494972
3.746872891010743e-10	0.3703753	0.9055935	0.16864197	-0.99006325	-0.038765542	-0.13464269
3.824490632150707e-10	0.29951525	0.9182266	0.23125157	-0.9987781	-0.034802333	-0.031174961
3.9044787958617317e-10	0.24290517	0.91605204	0.29658082	-0.9964899	-0.038635667	0.07109682
3.9891104861536655e-10	0.20218208	0.9006684	0.36495435	-0.98469925	-0.044731095	0.16661552
4.0714454588258153e-10	0.18121901	0.87571925	0.42938346	-0.9690119	-0.047335405	0.24130374
4.153624794505267e-10	0.1774513	0.842978	0.4905467	-0.9545771	-0.044877052	0.29403573
4.2366859232619925e-10	0.18922575	0.80304164	0.5482647	-0.9454888	-0.04003673	0.32307488
4.316069968027902e-10	0.21303625	0.75883126	0.59884644	-0.9436686	-0.039241355	0.3285534
4.392345898643318e-10	0.24537757	0.71075165	0.64264184	-0.94721067	-0.04819153	0.31681275
4.469505571966834e-10	0.28534254	0.65631545	0.6816208	-0.9530344	-0.070678756	0.29405934
4.550367215972265e-10	0.33258322	0.5927832	0.7161815	-0.9576597	-0.1082246	0.26605773
4.6293850849959853e-10	0.38156712	0.5242532	0.74323565	-0.9580568	-0.15404564	0.24074897
4.708485743481572e-10	0.43101388	0.44957152	0.7632266	-0.95388055	-0.20239462	0.2208018
4.788020238047516e-10	0.47898117	0.3690888	0.7758205	-0.9464329	-0.24749744	0.20675611
4.864301201736757e-10	0.5216544	0.2879439	0.78060824	-0.9382721	-0.2837342	0.19758555
4.934079503174104e-10	0.5568111	0.21157527	0.7786632	-0.9314892	-0.30970883	0.19078594
4.999986974089754e-10	0.58611524	0.13880105	0.7713141	-0.9264747	-0.32845998	0.18366778
5.064216824783587e-10	0.6108983	0.0684836	0.7591193	-0.9230545	-0.34271592	0.17434168
5.12807096791989e-10	0.6320033	0.00035852147	0.7422634	-0.9208032	-0.35466385	0.16155146
5.190302299712407e-10	0.64957	-0.06321426	0.7215452	-0.91917753	-0.3656526	0.14525467
5.251464673721495e-10	0.6644987	-0.12197478	0.69735044	-0.9175563	-0.3767539	0.12575844
5.312417987100061e-10	0.67773783	-0.1759582	0.6697938	-0.91546655	-0.38844147	0.10358305
5.373516603367241e-10	0.6901056	-0.22466701	0.63909435	-0.9126518	-0.40061197	0.07956358
5.434931234950772e-10	0.7023929	-0.2674389	0.60554236	-0.9090755	-0.41282627	0.054646082
5.496451159127972e-10	0.71529126	-0.30340657	0.5696664	-0.9049028	-0.42446437	0.029823426
5.557522925198558e-10	0.729317	-0.33172935	0.53226554	-0.90043104	-0.4349215	0.0059564924
5.618577247553503e-10	0.74504983	-0.3521841	0.49356756	-0.89589787	-0.4439342	-0.016838279
5.679654780120669e-10	0.7628145	-0.36433202	0.45403135	-0.8915131	-0.45132846	-0.038622096
5.740631615417828e-10	0.7826725	-0.36776623	0.41423506	-0.8874096	-0.4570535	-0.059665356
5.801222826142584e-10	0.80437386	-0.3622398	0.37487143	-0.88363	-0.46115607	-0.08033636
5.861865850385026e-10	0.82768446	-0.34752944	0.33616748	-0.88008684	-0.46377745	-0.101270854
5.922515471098478e-10	0.85197335	-0.3234806	0.2986762	-0.8766675	-0.46502313	-0.12286797
5.982173451863847e-10	0.8760011	-0.29070577	0.2635005	-0.8732861	-0.46500248	-0.14503393
6.040610667221698e-10	0.89871645	-0.24999455	0.23117349	-0.869825	-0.46385372	-0.16776103
6.098625273967463e-10	0.91942185	-0.20150839	0.20163369	-0.8661376	-0.4616422	-0.19132221
6.156757435697178e-10	0.9372275	-0.14544229	0.17503625	-0.8621247	-0.45834213	-0.21584481
6.21544008922659e-10	0.9511052	-0.0820954	0.15166554	-0.8577318	-0.45383438	-0.24138448
6.274213187886132e-10	0.95984346	-0.012970194	0.13215506	-0.8530257	-0.44798404	-0.26757774
6.332711212586992e-10	0.9625512	0.060122654	0.116941296	-0.8481356	-0.4406028	-0.29406095
6.391243081307293e-10	0.95866823	0.13599247	0.106176905	-0.84320104	-0.43134803	-0.32073995
6.450230011711784e-10	0.9477793	0.2135137	0.10001421	-0.8384272	-0.41973042	-0.34750864
6.510106147430992e-10	0.929618	0.2914765	0.09864539	-0.83412695	-0.4051004	-0.37413335
6.570862757412053e-10	0.90432346	0.36799246	0.10225338	-0.8307904	-0.3867821	-0.39995944
6.631858691106841e-10	0.8728229	0.44045112	0.11078331	-0.8290762	-0.36431986	-0.4237861
6.693333821330802e-10	0.8360877	0.5075499	0.124080844	-0.8297219	-0.33709675	-0.44442803
6.755845964467216e-10	0.795102	0.5684526	0.14204912	-0.8336263	-0.3044784	-0.46026874
6.818759309695539e-10	0.75184554	0.6214229	0.1641657	-0.8416456	-0.26685792	-0.468851
6.881954747477413e-10	0.7081093	0.66574997	0.18988377	-0.8544071	-0.22513981	-0.46759796
6.945641517576306e-10	0.665425	0.70131	0.21872796	-0.8721534	-0.1808949	-0.45383132
7.010270610488395e-10	0.625082	0.7282571	0.2503367	-0.8945353	-0.13646021	-0.4249326
7.076280881647465e-10	0.5883161	0.7467529	0.2843551	-0.92028934	-0.09505758	-0.37883443
7.142628260563428e-10	0.55694044	0.7568054	0.319619	-0.94649374	-0.061076462	-0.3162874
7.209050119798847e-10	0.53185356	0.7590339	0.35533556	-0.96990395	-0.037425607	-0.24005225
7.276053418536948e-10	0.51335096	0.75409037	0.39115757	-0.9876931	-0.025124857	-0.15370154
7.344382048752462e-10	0.5016056	0.74233866	0.4268761	-0.9977163	-0.023539392	-0.061253667
7.414400893287908e-10	0.49682045	0.72394747	0.4620505	-0.9988092	-0.030425617	0.032515816
7.48591882156325e-10	0.49901295	0.6991427	0.4959327	-0.9913153	-0.04200692	0.12235711
7.557894881860842e-10	0.50770247	0.66856915	0.52743196	-0.9773936	-0.05370298	0.20293427
7.630803552343581e-10	0.5221915	0.6323378	0.5562093	-0.9600959	-0.061884087	0.271703
7.70476460583969e-10	0.54163456	0.59063435	0.58175457	-0.94293714	-0.06466659	0.32606524
7.780068803933942e-10	0.56511647	0.5435576	0.6036039	-0.92927873	-0.06285527	0.36375704
7.857186485676734e-10	0.59171295	0.49113595	0.6212916	-0.92165375	-0.060335785	0.38316104
7.936480396170842e-10	0.62041444	0.43359023	0.63425404	-0.9209086	-0.06348646	0.38432318
8.015424972679528e-10	0.64913964	0.37361178	0.64171165	-0.92519474	-0.0781454	0.3709023
8.095258795386234e-10	0.67732096	0.31142116	0.643647	-0.93082976	-0.10677554	0.34888712
8.171025844499684e-10	0.7025785	0.2522011	0.6403066	-0.9341431	-0.14452472	0.32565045
8.247231847357057e-10	0.7261257	0.19373783	0.6320051	-0.933894	-0.18805927	0.303471
8.321513381432587e-10	0.7471603	0.13907552	0.6193786	-0.9303806	-0.23092806	0.28424674
8.391339975998317e-10	0.7652842	0.090886384	0.60371494	-0.92522544	-0.26824427	0.2680748
8.458249210583592e-10	0.7813461	0.048538703	0.585569	-0.9197638	-0.2996474	0.25338772
8.523873698418349e-10	0.79611206	0.0114286905	0.56512475	-0.9147654	-0.32596326	0.23863181
8.589415037639185e-10	0.8101604	-0.020571522	0.5424551	-0.9105767	-0.34832275	0.22244748
8.654451808197968e-10	0.82367516	-0.04672923	0.51812506	-0.90727246	-0.36757553	0.20406605
8.718474185588688e-10	0.8367801	-0.06654485	0.49279022	-0.90462935	-0.3846259	0.18316433
8.782513147622421e-10	0.84983414	-0.08008353	0.46648878	-0.9022406	-0.40049192	0.15929615
8.847148097635898e-10	0.8630055	-0.087077275	0.4394019	-0.8997353	-0.415635	0.13237771
8.912451659601133e-10	0.87624764	-0.087136604	0.41193697	-0.89684284	-0.43003374	0.10276285
8.976351349855479e-10	0.88896406	-0.08029623	0.38541177	-0.8935331	-0.44300902	0.072058596
9.039535728418697e-10	0.9010212	-0.066865124	0.3599504	-0.8897841	-0.45445085	0.0406698
9.103039763635699e-10	0.91224337	-0.046857897	0.33554456	-0.8856039	-0.4642931	0.008670182
9.167229691307092e-10	0.9222099	-0.02032267	0.31249124	-0.88105893	-0.4723772	-0.023696393
9.231543550499137e-10	0.9302895	0.01215102	0.29141557	-0.8762821	-0.47852248	-0.055888876
9.295026128753832e-10	0.935876	0.049362373	0.2729519	-0.871422	-0.4826679	-0.087349415
9.358435882622077e-10	0.9386095	0.09088537	0.25714058	-0.8664677	-0.48492628	-0.11849995
9.422236751378406e-10	0.9380842	0.13615876	0.24415007	-0.861405	-0.485304	-0.14967242
9.486209603721112e-10	0.9339677	0.1840581	0.23427318	-0.856267	-0.48373097	-0.18088198
9.54945431457264e-10	0.9262265	0.23280565	0.2277505	-0.851151	-0.48015118	-0.21179408
9.612560614833136e-10	0.9148951	0.2817387	0.22452772	-0.84605473	-0.47440615	-0.24275576
9.676072980383496e-10	0.90006006	0.3301998	0.22460048	-0.8410102	-0.46619764	-0.27402937
9.740542538399586e-10	0.88187194	0.37752834	0.22800611	-0.836102	-0.4550628	-0.3057861
9.805662555834874e-10	0.860865	0.42244518	0.23470758	-0.83156127	-0.44055513	-0.3376205
9.870882110249174e-10	0.8378759	0.46366632	0.24448748	-0.8277371	-0.42228532	-0.3687889
9.936590885603186e-10	0.8135475	0.50069153	0.25716364	-0.8250575	-0.39961445	-0.39870077
1.0003270534106976e-09	0.7885353	0.5331142	0.27257955	-0.8241558	-0.37180248	-0.42636293
1.0071424886369559e-09	0.76354176	0.56053823	0.29058817	-0.82592845	-0.33811855	-0.45016384
1.0140601865408735e-09	0.73965204	0.5822882	0.3107391	-0.83144426	-0.29863685	-0.46747634
1.0210710167273814e-09	0.71776956	0.59806883	0.33259308	-0.84174633	-0.254007	-0.47528487
1.0281501978088909e-09	0.69872904	0.60774785	0.35561088	-0.8575156	-0.20601025	-0.47031343
1.035242267887627e-09	0.68323493	0.6113957	0.37911856	-0.87855995	-0.15782213	-0.44978833
1.0423983228186576e-09	0.6715515	0.6092764	0.40279254	-0.90391886	-0.112854354	-0.41169137
1.049675926940643e-09	0.6638698	0.60154355	0.42633122	-0.9315758	-0.075053334	-0.3550876
1.0571241748701116e-09	0.66033685	0.58825576	0.44937858	-0.95844066	-0.048330463	-0.28077024
1.0645879619404468e-09	0.660955	0.5699669	0.47096395	-0.9802771	-0.035695404	-0.19400866
1.0721223985373573e-09	0.6654128	0.54696083	0.4908069	-0.9942069	-0.036928937	-0.0995647
1.0797925267796435e-09	0.67338693	0.51939625	0.5086229	-0.9984443	-0.049830742	-0.0021690493
1.0876735408651179e-09	0.68455416	0.4873327	0.52408504	-0.9925169	-0.070594534	0.0940769
1.0957598496819632e-09	0.69842005	0.45120227	0.53666323	-0.97750735	-0.09407675	0.18491933
1.1039753897390273e-09	0.71424496	0.41195777	0.54580754	-0.956237	-0.11481758	0.2663821
1.1122265252147881e-09	0.7311762	0.37087965	0.55116284	-0.93268234	-0.12891462	0.3352238
1.1204405466454218e-09	0.74843717	0.32930678	0.5526359	-0.91096926	-0.13554472	0.38885683
1.128541024215883e-09	0.76536644	0.28864366	0.5503656	-0.8944973	-0.13728744	0.42529294
1.1365862825900703e-09	0.78174007	0.24958554	0.544586	-0.8849015	-0.13916424	0.4443534
1.1445129913713615e-09	0.7972262	0.21335462	0.5356674	-0.8820009	-0.14662993	0.44740385
1.1522101049446857e-09	0.8115422	0.1811745	0.52421236	-0.8835535	-0.16297042	0.43829322
1.159891705648176e-09	0.8250852	0.15278526	0.5103548	-0.8866614	-0.1889989	0.42113972
1.1673978318856545e-09	0.83760506	0.12930138	0.49482572	-0.88894355	-0.22184607	0.39989373
1.1747125875558547e-09	0.8491404	0.11099476	0.47816947	-0.8894008	-0.25765252	0.37698078
1.1815918613342085e-09	0.8593898	0.098274976	0.4614778	-0.8882633	-0.29183865	0.35430002
1.188223237753397e-09	0.86869425	0.09038469	0.44476432	-0.88623405	-0.3232736	0.33156228
1.1947709930652196e-09	0.8772722	0.08694924	0.4279663	-0.8839072	-0.3517499	0.3080805
1.2013568029850749e-09	0.88519955	0.08791841	0.41107905	-0.88168937	-0.3774284	0.28305507
1.207884302169086e-09	0.8922404	0.093229756	0.39464754	-0.8798363	-0.4000498	0.25643194
1.2143325786151022e-09	0.8982483	0.10261644	0.37899798	-0.8783505	-0.4199646	0.22799647
1.2208034984116145e-09	0.90316033	0.11597381	0.36414495	-0.8770595	-0.43786067	0.19711876
1.227384266093586e-09	0.906821	0.13331132	0.3501753	-0.8757297	-0.45412973	0.163289
1.234097770938578e-09	0.90897447	0.15450178	0.33735478	-0.87412333	-0.46875983	0.12643325
1.2406791445516496e-09	0.9093635	0.178237	0.3264081	-0.87212515	-0.48107174	0.08834438
1.2472028881219239e-09	0.9079341	0.20412935	0.31732196	-0.8696203	-0.49113363	0.04910977
1.2537767843303289e-09	0.9045844	0.23201892	0.31008643	-0.8665143	-0.4989668	0.008562412
1.2604717280463925e-09	0.89918333	0.26163292	0.30480596	-0.8627398	-0.5044601	-0.033288278
1.2671627076927295e-09	0.8918351	0.2917766	0.30169734	-0.8583776	-0.50739384	-0.07523057
1.2738716783579494e-09	0.8826466	0.3218731	0.30077374	-0.8534724	-0.50775194	-0.1170198
1.280666713219744e-09	0.871704	0.35155645	0.30204532	-0.8480648	-0.50546336	-0.158746
1.2875842221255016e-09	0.8591813	0.38030064	0.30553854	-0.84226084	-0.50034606	-0.20031147
1.2944828991598134e-09	0.8456796	0.4068994	0.3111006	-0.83638775	-0.49233645	-0.24057439
1.3013967213466345e-09	0.83155775	0.43098214	0.31858248	-0.83069825	-0.48121712	-0.27945825
1.3083710816396241e-09	0.8171675	0.45225182	0.32784972	-0.8255135	-0.46660453	-0.3168783
1.3154588447076577e-09	0.802865	0.47043368	0.33878255	-0.8212551	-0.44792616	-0.35263544
1.322724786601458e-09	0.78901315	0.48525006	0.35127926	-0.8184918	-0.4243913	-0.38630557
1.3302079119792613e-09	0.7760625	0.4963314	0.36517447	-0.8180105	-0.3951587	-0.41687423
1.3377759270699587e-09	0.76472527	0.50319886	0.37991846	-0.82073236	-0.3602915	-0.44213724
1.3453746000930635e-09	0.755437	0.5057752	0.3950448	-0.82749814	-0.32022336	-0.45985612
1.353012312375521e-09	0.7484256	0.50416255	0.4102014	-0.8390215	-0.27588117	-0.46758977
1.3606755943769492e-09	0.7438324	0.49854237	0.4250008	-0.8556112	-0.22928804	-0.46271804
1.3684139197095237e-09	0.74166894	0.48909616	0.4391873	-0.8770641	-0.1831162	-0.44286117
1.3762901661068893e-09	0.7419121	0.47595116	0.4525196	-0.9023886	-0.14085527	-0.40617424
1.3843336299270226e-09	0.74450266	0.45928013	0.4646785	-0.92948043	-0.106675506	-0.35219994
1.3925114312054269e-09	0.749275	0.43946332	0.47525924	-0.95515025	-0.08452506	-0.2829312
1.4007464135521905e-09	0.7559129	0.41714102	0.48387197	-0.9759133	-0.07662775	-0.20294142
1.4088497534845923e-09	0.76387554	0.39343804	0.49018067	-0.9890263	-0.082400024	-0.119217485
1.4170145003229427e-09	0.7729693	0.36842537	0.4942568	-0.9937749	-0.099377796	-0.034516454
1.4254663322507192e-09	0.78314734	0.34201682	0.4960162	-0.9899162	-0.1248694	0.049681276
1.434242215985207e-09	0.7941741	0.31480432	0.49521378	-0.97789145	-0.1550495	0.13073236
1.442864947279874e-09	0.80514866	0.28904378	0.49190888	-0.9603269	-0.18390162	0.20278083
1.451408263486068e-09	0.815907	0.2652087	0.48633432	-0.93975925	-0.20840713	0.26616094
1.4598254774454322e-09	0.8262019	0.24403086	0.47881764	-0.91876936	-0.22695474	0.32007045
1.4681252726274065e-09	0.8359107	0.22596435	0.4696955	-0.8994954	-0.23994038	0.36362252
1.47644016161618e-09	0.84507656	0.21115923	0.4591502	-0.8834217	-0.24942128	0.39600468
1.4848431133850805e-09	0.8536595	0.19995004	0.44739825	-0.8717021	-0.2584219	0.41591036
1.493021704890854e-09	0.86125064	0.1929447	0.43524918	-0.8648746	-0.26984578	0.42267135
1.5010765170131035e-09	0.86788183	0.18996851	0.42294255	-0.8617252	-0.28597695	0.41826224
1.5090969764005741e-09	0.8735336	0.19091338	0.41068956	-0.8606673	-0.30751687	0.40492234
1.5167009630407578e-09	0.8779	0.19534355	0.39937353	-0.8603231	-0.33209786	0.3859546
1.5238998174799946e-09	0.8810407	0.20256335	0.3891789	-0.85991836	-0.35753292	0.36371693
1.5309039075840869e-09	0.8830796	0.21221133	0.37995195	-0.8592704	-0.3827466	0.33895802
1.5378855406709923e-09	0.88403755	0.22414985	0.37161422	-0.85845816	-0.40708637	0.31172538
1.544840196716496e-09	0.883866	0.23804457	0.36431846	-0.85764784	-0.42969844	0.2823141
1.5517359387429274e-09	0.88255084	0.25345486	0.35820946	-0.8569672	-0.45004523	0.25097102
1.5585846027399018e-09	0.8801081	0.27000356	0.35335258	-0.85644484	-0.46801353	0.21767452
1.5654661262613958e-09	0.8765371	0.28749067	0.34976178	-0.8560139	-0.4837547	0.1820284
1.5724767658673472e-09	0.87180936	0.30577594	0.34747952	-0.85554004	-0.49736613	0.14351906
1.5796729116923221e-09	0.865918	0.3245951	0.34659857	-0.85484654	-0.5087174	0.10187939
1.586904940726281e-09	0.859087	0.34311286	0.34718835	-0.8537717	-0.5173349	0.058210857
1.5941528156037874e-09	0.85151434	0.36084703	0.34921184	-0.8521835	-0.5230346	0.013067327
1.6015163826453834e-09	0.8433012	0.37761906	0.35265005	-0.8499656	-0.5257027	-0.033665866
1.608897328997693e-09	0.8347943	0.39281496	0.35737568	-0.84711134	-0.5251471	-0.08079641
1.6163297861908031e-09	0.8262161	0.40617904	0.36327985	-0.84364873	-0.52128804	-0.12793794
1.6238788149822696e-09	0.8177635	0.4175153	0.37027562	-0.8396605	-0.5139717	-0.17487678
1.6315987504134774e-09	0.80966234	0.42658898	0.37826377	-0.8353267	-0.50294185	-0.22126402
1.6394356067285656e-09	0.8022549	0.43307415	0.3870033	-0.83101726	-0.48804694	-0.26602694
1.6473352187847811e-09	0.79584146	0.43678427	0.39620775	-0.82723963	-0.46920127	-0.30807984
1.6553567399846046e-09	0.7905866	0.43767294	0.40570107	-0.82457733	-0.44604725	-0.34685114
1.6635688946407408e-09	0.7866425	0.43567723	0.41530547	-0.82377946	-0.41809398	-0.38150504
1.6719069033540316e-09	0.7841853	0.4308164	0.42466995	-0.82573426	-0.38538826	-0.41030797
1.6803178810500319e-09	0.78328156	0.42326158	0.4334644	-0.8312753	-0.3483563	-0.4314055
1.6888786654167557e-09	0.7839167	0.41314718	0.44150352	-0.8411922	-0.30741146	-0.4429454
1.6975705078548239e-09	0.7860373	0.40074953	0.44850987	-0.8559184	-0.2641849	-0.44255015
1.7063396291194635e-09	0.78950423	0.38649917	0.45421875	-0.8751666	-0.22148716	-0.42818314
1.7152066267789953e-09	0.79414904	0.37078983	0.45846525	-0.8979349	-0.18258747	-0.39860755
1.7241326122362648e-09	0.7997432	0.35417247	0.46110123	-0.9222051	-0.15129595	-0.35414082
1.733154963052691e-09	0.80608547	0.33710143	0.46205875	-0.9455364	-0.13062337	-0.29642832
1.742330875887596e-09	0.8129947	0.32002518	0.46129233	-0.96535337	-0.12249879	-0.2282381
1.7513178902911006e-09	0.81998193	0.30412048	0.45891488	-0.9788915	-0.12697256	-0.15636209
1.760318959625153e-09	0.82699335	0.28950936	0.45504466	-0.9855206	-0.14202905	-0.083251595
1.7695418843871726e-09	0.83400136	0.2763824	0.4497104	-0.98500955	-0.16547123	-0.010359949
1.7790754863709485e-09	0.84087425	0.26521987	0.442978	-0.97754335	-0.19447374	0.06067387
1.7889844720342491e-09	0.8474359	0.25660458	0.4349732	-0.96392345	-0.2257474	0.12874582
1.7987466059382551e-09	0.853153	0.2513737	0.42642412	-0.94660854	-0.2544453	0.18961394
1.8080840366437106e-09	0.85778624	0.24953002	0.41796187	-0.9282583	-0.27812028	0.24148491
1.8171790370951022e-09	0.8613967	0.2507111	0.40975642	-0.91033757	-0.297193	0.28483725
1.8262752680402824e-09	0.8640164	0.25472644	0.4018723	-0.89386356	-0.31302184	0.31937465
1.8352867324904556e-09	0.86555386	0.26129526	0.39464056	-0.88019574	-0.32703134	0.34316492
1.8440006248505992e-09	0.86598516	0.2698232	0.38841477	-0.87015486	-0.34082782	0.35530528
1.852649556548455e-09	0.86536306	0.2800682	0.3831611	-0.863261	-0.3563438	0.35681945
1.860971991735285e-09	0.8637837	0.29124328	0.3791095	-0.8589712	-0.3737607	0.34923202
1.8688975662934986e-09	0.8614212	0.3027379	0.37625355	-0.85633993	-0.3924953	0.3349347
1.876553001839536e-09	0.85840213	0.31430486	0.374473	-0.85461545	-0.41188878	0.31566507
1.884080054941272e-09	0.85480547	0.32581675	0.37367967	-0.85339534	-0.43129924	0.29236186
1.8915749575402247e-09	0.8507018	0.33712614	0.3738281	-0.8525114	-0.45009908	0.26552072
1.8990824147606815e-09	0.8461825	0.34802604	0.37488782	-0.8519043	-0.46769595	0.235463
1.9066060613596944e-09	0.84137166	0.35826418	0.37681472	-0.8515371	-0.48357287	0.20248067
1.9141761084731184e-09	0.83638614	0.36764222	0.3795572	-0.85134685	-0.49740505	0.16665283
1.9218739641163493e-09	0.8313161	0.3760233	0.383081	-0.851233	-0.50899017	0.12774879
1.929794233790321e-09	0.8262569	0.38325143	0.38736564	-0.85105884	-0.51806223	0.08544022
1.937944778240651e-09	0.8213787	0.38906637	0.3923335	-0.8506628	-0.52416563	0.039937444
1.9461164776858555e-09	0.81697273	0.39314336	0.39772794	-0.84990746	-0.52681327	-0.007103405
1.9543355218955832e-09	0.8131614	0.39542478	0.40340635	-0.8486974	-0.52584696	-0.055166066
1.9626250846436644e-09	0.8100516	0.39588082	0.40922004	-0.8470023	-0.52113044	-0.103644505
1.9710397486928604e-09	0.8077235	0.39450356	0.4150373	-0.84486914	-0.51250833	-0.1520463
1.979655996987629e-09	0.80624735	0.3912812	0.42073163	-0.8424456	-0.49973688	-0.19989869
1.9885242201056573e-09	0.8056934	0.38621685	0.4261416	-0.84003603	-0.482521	-0.24641265
1.9974928496346608e-09	0.8060974	0.37951416	0.4309856	-0.8381767	-0.46102825	-0.28963882
2.0065592075070813e-09	0.80742306	0.37139332	0.4350994	-0.8375141	-0.4352811	-0.3283739
2.015755755266714e-09	0.8096087	0.36208948	0.43835205	-0.8388176	-0.4052765	-0.36138928
2.025168036584958e-09	0.8125921	0.3518145	0.44063577	-0.8429748	-0.37096903	-0.3872751
2.0347616280149747e-09	0.81625485	0.3409546	0.44182545	-0.8508235	-0.33311653	-0.4038828
2.0444616181405013e-09	0.82042587	0.32999474	0.4418529	-0.8628439	-0.29336777	-0.40902436
2.0543270007629576e-09	0.8249706	0.31929576	0.44070682	-0.87912416	-0.25368977	-0.40082797
2.0644131700680316e-09	0.8297473	0.30924916	0.43839824	-0.8990636	-0.21694797	-0.37770718
2.074626067137458e-09	0.83453417	0.3003942	0.4350257	-0.9208578	-0.18706562	-0.33959466
2.0849209963365682e-09	0.83913326	0.29315865	0.43075234	-0.9420394	-0.16732855	-0.2882402
2.095059107198199e-09	0.84328306	0.2879567	0.42589515	-0.9596803	-0.15969013	-0.22823979
2.1049885063629182e-09	0.84684914	0.28488022	0.42073295	-0.97197783	-0.16353576	-0.16409318
2.1148978321559717e-09	0.8498031	0.2838773	0.41540554	-0.9782647	-0.17710958	-0.098199405
2.1248579486690976e-09	0.8520688	0.28493664	0.4100991	-0.97833467	-0.19810677	-0.032799505
2.135293033412508e-09	0.85360694	0.2881574	0.40482843	-0.97224617	-0.22482803	0.032890484
2.1465319572967184e-09	0.85424745	0.29379633	0.3997418	-0.9599633	-0.25533038	0.09916198
2.1575647675410502e-09	0.8538326	0.30116025	0.3955763	-0.9438628	-0.28396052	0.15883455
2.1678282020476883e-09	0.852545	0.30924428	0.39260122	-0.9269414	-0.30779487	0.20841879
2.177880033251832e-09	0.8505062	0.31791532	0.3906309	-0.91009074	-0.32811677	0.24972728
2.1875300724799837e-09	0.84791684	0.32656705	0.38966796	-0.8950029	-0.34530187	0.28071344
2.1968031801660013e-09	0.8449538	0.33484796	0.38960838	-0.8825326	-0.36066413	0.300951
2.2059954724646954e-09	0.84167933	0.34272355	0.39036274	-0.87270725	-0.3759395	0.31099564
2.21487663539709e-09	0.8383218	0.3497624	0.39181173	-0.86566824	-0.39164937	0.3112924
2.223381593643101e-09	0.8350456	0.35577634	0.39379784	-0.86088026	-0.40793955	0.3035625
2.2316118870373636e-09	0.8319248	0.3607664	0.39620346	-0.8576468	-0.4246975	0.2894893
2.2396896292957876e-09	0.82900417	0.3647581	0.3989469	-0.85545063	-0.44157714	0.27022347
2.2477294532895433e-09	0.8263217	0.36776015	0.40196827	-0.85397243	-0.4581368	0.24642104
2.2558044285712003e-09	0.82392734	0.36975032	0.4052043	-0.8530315	-0.47386187	0.21847326
2.263950148420408e-09	0.8218797	0.37069607	0.40857807	-0.85250914	-0.48821837	0.18666846
2.2721955959918206e-09	0.82023317	0.3705755	0.41200703	-0.85229456	-0.50072265	0.15120131
2.280613763732749e-09	0.8190304	0.36937267	0.41542196	-0.8522601	-0.51097476	0.11201299
2.2893098675080004e-09	0.81831527	0.3670579	0.41875565	-0.85225475	-0.5185386	0.068865016
2.298253218614863e-09	0.81813943	0.3636512	0.42187667	-0.8521068	-0.5227982	0.02229381
2.307224123747562e-09	0.8185139	0.35933188	0.42460147	-0.8516669	-0.52325046	-0.0258958
2.316266846226815e-09	0.81941116	0.35423446	0.42685813	-0.85084295	-0.5196924	-0.075090736
2.3254369782054118e-09	0.82079774	0.3484984	0.42858246	-0.84962445	-0.5119259	-0.12464814
2.3348300281456023e-09	0.8226427	0.34225214	0.4297164	-0.8481088	-0.49967685	-0.17401177
2.3445283530467654e-09	0.82490826	0.3356556	0.4301945	-0.846557	-0.4825973	-0.222341
2.3543711275562565e-09	0.82747996	0.32906842	0.4299648	-0.8454764	-0.46085098	-0.26741588
2.364256679555237e-09	0.83022994	0.3228189	0.42904228	-0.84553546	-0.43479526	-0.3073627
2.3743157881572986e-09	0.8330878	0.31708252	0.4274536	-0.8475368	-0.40432978	-0.34113342
2.384662908374719e-09	0.8359742	0.31206715	0.42522758	-0.8524492	-0.3694825	-0.36705738
2.395178795643487e-09	0.83873713	0.30808765	0.42247143	-0.8610885	-0.33154622	-0.38253108
2.4058314011526776e-09	0.8412518	0.30535543	0.4193174	-0.8738888	-0.2923513	-0.38535553
2.4166352996961945e-09	0.8434104	0.30400985	0.41591024	-0.8906702	-0.25445107	-0.3737437
2.4277179853330084e-09	0.8451275	0.30414128	0.41237646	-0.9105991	-0.2208568	-0.34635907
2.4389085256968233e-09	0.8462822	0.30576906	0.4089512	-0.931373	-0.19577876	-0.3039775
2.4497662116062154e-09	0.8468057	0.3086556	0.4059278	-0.9497011	-0.18234254	-0.2513206
2.460340695587732e-09	0.8467379	0.31252542	0.40339985	-0.96368825	-0.18041557	-0.19250318
2.4708049270451843e-09	0.8461236	0.3171677	0.40140527	-0.9723296	-0.18868387	-0.13041762
2.481204113420718e-09	0.8450115	0.32234174	0.39999568	-0.9751502	-0.20510921	-0.06781928
2.4919196914014233e-09	0.8434068	0.32798678	0.3991865	-0.97215474	-0.2279415	-0.004622359
2.5035948643372837e-09	0.8412327	0.33416912	0.39906472	-0.96294874	-0.25623626	0.061057817
2.51549714833282e-09	0.8387016	0.34014893	0.3997311	-0.94868606	-0.28540364	0.12337621
2.526544240282312e-09	0.83621305	0.34511262	0.40100276	-0.9326532	-0.31063974	0.17572783
2.537199179431461e-09	0.83381915	0.34914464	0.40274185	-0.91619164	-0.3324436	0.21942075
2.547179134936505e-09	0.8316915	0.35210374	0.4047376	-0.9012331	-0.35070422	0.2523286
2.5567582125313628e-09	0.8298403	0.35411236	0.40689772	-0.88837135	-0.36691138	0.27497104
2.5662609181412306e-09	0.82825804	0.35525373	0.4091874	-0.8777778	-0.38261276	0.28776053
2.5754399318954333e-09	0.827021	0.35553992	0.411453	-0.86984587	-0.39822686	0.29075137
2.5842577965134714e-09	0.8261358	0.3550757	0.41360375	-0.8642199	-0.41406205	0.28537542
2.5928137002202474e-09	0.8255793	0.3539695	0.41560102	-0.8603064	-0.4301729	0.2731623
2.6012224671689908e-09	0.8253291	0.35230485	0.41742164	-0.85760653	-0.44633153	0.25524226
2.6095976769696447e-09	0.825369	0.3501428	0.41904607	-0.8557745	-0.46216214	0.23230574
2.618017994965614e-09	0.8256877	0.34753937	0.4204474	-0.8545921	-0.47717682	0.20477483
2.626529580167401e-09	0.8262731	0.3445588	0.42159325	-0.85390615	-0.4908352	0.17294942
2.6351769539478173e-09	0.8271102	0.34127203	0.42245206	-0.8535795	-0.50261617	0.1370124