# t (s)	mx ()	my ()	mz ()	m.region1x ()	m.region1y ()	m.region1z ()
0	0	1	0	0	1	0
1.023e-12	-0.01704326	0.999791	0.010997302	-0.049747534	0.9986411	0.015533187
2.047e-12	-0.03369706	0.9991761	0.022038737	-0.09855328	0.994611	0.03219094
4.095e-12	-0.06575617	0.996806	0.04419944	-0.19220349	0.9789729	0.0683371
8.191e-12	-0.12472612	0.9880288	0.088685825	-0.35829473	0.9217682	0.1482171
1.4787904769879304e-11	-0.2048873	0.965019	0.1601544	-0.5538056	0.7838899	0.28073514
2.1492190109397404e-11	-0.26771885	0.93410426	0.23165284	-0.66745436	0.62850654	0.3993352
2.840470326155301e-11	-0.31376606	0.89789236	0.3033453	-0.7221035	0.4839334	0.49431002
3.560836843100567e-11	-0.34315044	0.8583411	0.37523726	-0.74201155	0.3614797	0.5645394
4.3107407018696184e-11	-0.35570624	0.81722534	0.4465665	-0.7457278	0.26219052	0.61244535
5.085263299180181e-11	-0.35177237	0.77590936	0.5161757	-0.74489826	0.18131936	0.6420133
5.86725170397876e-11	-0.3327939	0.73553866	0.5820746	-0.7449069	0.11302893	0.65745986
6.659304239434334e-11	-0.30052388	0.69540787	0.6441851	-0.7468052	0.050696854	0.66303074
7.468663806704034e-11	-0.25626034	0.6539644	0.7026653	-0.7497283	-0.010076365	0.66158044
8.302573825281023e-11	-0.20107959	0.6091053	0.7574043	-0.7524315	-0.07159351	0.6546699
9.164934513061854e-11	-0.13640118	0.5583918	0.8077577	-0.75401187	-0.1346026	0.6428147
1.005588079445766e-10	-0.06444845	0.49926656	0.8525774	-0.7541487	-0.19895595	0.6257222
1.097557988088623e-10	0.011791959	0.42918515	0.890471	-0.7529985	-0.26432493	0.6024631
1.1924251006961064e-10	0.08852963	0.34606677	0.9198151	-0.7508997	-0.3303107	0.5717162
1.289900132257557e-10	0.16110782	0.24917068	0.9387786	-0.7480943	-0.39609852	0.53221434
1.3871494362627333e-10	0.22336374	0.14233077	0.945647	-0.7446321	-0.45892805	0.48443335
1.4847603139007194e-10	0.27289015	0.027757233	0.9399651	-0.7401403	-0.5181469	0.42832103
1.582248073678385e-10	0.30823344	-0.090085186	0.921636	-0.7340249	-0.5723711	0.36512178
1.6788769390471053e-10	0.33002815	-0.20593475	0.8913382	-0.7256354	-0.62039524	0.29706585
1.777246595314524e-10	0.3412193	-0.31861645	0.8488666	-0.7140283	-0.6629248	0.22438566
1.8737231399594787e-10	0.34534806	-0.42042357	0.7969041	-0.69917035	-0.6983571	0.15194753
1.966638791868993e-10	0.34738415	-0.50780165	0.73841643	-0.6814163	-0.7269302	0.08282523
2.0569589744906764e-10	0.35189524	-0.58102596	0.67481637	-0.6609154	-0.7500045	0.017277528
2.1474537718269248e-10	0.3629638	-0.6415439	0.6056032	-0.63720644	-0.7690499	-0.04644289
2.237891039165099e-10	0.38406366	-0.68793356	0.5321107	-0.6102667	-0.7845032	-0.10854481
2.3295410561900044e-10	0.41841292	-0.7189667	0.45443383	-0.5793177	-0.79679096	-0.17089689
2.4232121657776035e-10	0.4686413	-0.7317216	0.37306622	-0.5431894	-0.80571353	-0.23560297
2.5145445092626405e-10	0.5323517	-0.7226668	0.29328674	-0.50261194	-0.8101156	-0.3014644
2.6026943893150414e-10	0.6058375	-0.69045496	0.21748586	-0.45747003	-0.8087863	-0.3693481
2.6896526354823625e-10	0.68618417	-0.6328627	0.14568013	-0.40656275	-0.7995279	-0.4419638
2.7740323836435927e-10	0.7662537	-0.5500759	0.08080767	-0.35128808	-0.77923405	-0.5189295
2.859881845854153e-10	0.8427317	-0.43771392	0.021918617	-0.29075786	-0.741604	-0.6044775
2.9423906251952164e-10	0.9037895	-0.30428952	-0.025665708	-0.2324149	-0.6821633	-0.69320965
3.023587220383576e-10	0.94463533	-0.15250681	-0.06177971	-0.18216951	-0.59298265	-0.7842552
3.106226571505917e-10	0.9604319	0.01618838	-0.08579217	-0.15116815	-0.46232384	-0.87361395
3.185283582840617e-10	0.94772804	0.18273993	-0.09550195	-0.15837765	-0.29561785	-0.9419104
3.2622092752815064e-10	0.9088892	0.34109724	-0.09197272	-0.21898994	-0.101541385	-0.97015977
3.340499565515733e-10	0.8452195	0.490296	-0.07540838	-0.34566823	0.101990625	-0.93239045
3.420046155259873e-10	0.761064	0.6225527	-0.046062745	-0.5272256	0.27045256	-0.80495906
3.49895208125469e-10	0.665486	0.7299015	-0.005989475	-0.7157602	0.36016214	-0.5975684
3.579466626523849e-10	0.56369555	0.8130578	0.04415967	-0.8652452	0.36560464	-0.3421085
3.659852501237265e-10	0.46544665	0.87018526	0.10132111	-0.94558823	0.3119802	-0.08993505
3.740291485175957e-10	0.3768052	0.9040534	0.1633607	-0.9627093	0.23738492	0.12827495
3.8215717933889e-10	0.30160302	0.91830933	0.22883844	-0.9377401	0.17049113	0.30201823
3.905490097046349e-10	0.24194624	0.9161662	0.29739347	-0.8931264	0.12648828	0.43136364
3.989924784124281e-10	0.20149434	0.9006387	0.3656139	-0.8509058	0.10952431	0.51367337
4.073101549611619e-10	0.18056788	0.8752548	0.43068165	-0.82618785	0.10922192	0.55265844
4.1527011972587014e-10	0.17698862	0.843466	0.48993078	-0.82289183	0.10840284	0.5576616
4.2312809830157996e-10	0.18761574	0.80588716	0.5447188	-0.83548236	0.092965126	0.5414192
4.303624348863017e-10	0.2081847	0.76617837	0.5913227	-0.8533096	0.059779014	0.517736
4.3733649928164413e-10	0.23619686	0.72325397	0.63231045	-0.8689076	0.011713859	0.49457842
4.442932832582697e-10	0.27053112	0.6757443	0.668943	-0.8783103	-0.046524666	0.4755737
4.5129916529073913e-10	0.30988383	0.62298954	0.70116216	-0.880125	-0.10885279	0.461905
4.5815048807474904e-10	0.35136285	0.5665399	0.7277928	-0.8755481	-0.16803074	0.45286745
4.6494525575617723e-10	0.39385533	0.5058736	0.74913466	-0.86703557	-0.22200084	0.44601935
4.717654361793434e-10	0.43638414	0.44056562	0.76521605	-0.8567655	-0.2706738	0.43893257
4.783741976013191e-10	0.4762103	0.37355435	0.77549404	-0.84667116	-0.31330097	0.43002024
4.84867495684058e-10	0.5129965	0.30483064	0.78037584	-0.8372675	-0.35212022	0.4181604
4.913503212888868e-10	0.5466412	0.23424104	0.7800307	-0.8283988	-0.3890569	0.40274957
4.978911071242507e-10	0.5769601	0.16207041	0.7744114	-0.8196418	-0.42527568	0.38358268
5.045247679942675e-10	0.6037673	0.089113034	0.76340216	-0.8105415	-0.46119934	0.36077055
5.112756884148238e-10	0.6270635	0.016453322	0.7469007	-0.8007598	-0.49671683	0.33458656
5.181852842729056e-10	0.6471689	-0.05482227	0.72477555	-0.7901299	-0.53148085	0.30523157
5.251767539622878e-10	0.6644039	-0.12231523	0.69740164	-0.77887213	-0.5644585	0.27332783
5.322324970784872e-10	0.67962295	-0.18433046	0.6651931	-0.7672341	-0.59507227	0.2391229
5.391677314329851e-10	0.6935566	-0.23810723	0.6296089	-0.7557057	-0.6223713	0.20357803
5.461193612959962e-10	0.70761776	-0.2838169	0.59064585	-0.7440901	-0.6469953	0.16595598
5.531512507704642e-10	0.7229819	-0.32077903	0.54854065	-0.7321081	-0.669302	0.1257559
5.602281033013575e-10	0.74047434	-0.3477331	0.50414395	-0.71944773	-0.68937397	0.083047375
5.6718662542247e-10	0.7602327	-0.36350754	0.45923394	-0.7059156	-0.7070463	0.038855866
5.741476160223899e-10	0.78275454	-0.36803305	0.41379976	-0.6907461	-0.7228899	-0.007452237
5.811709986883962e-10	0.8080907	-0.36067486	0.36821103	-0.67321634	-0.7371481	-0.056190208
5.880243731453824e-10	0.8347581	-0.3415813	0.32473063	-0.653446	-0.74940777	-0.105611786
5.94778518735635e-10	0.86197335	-0.31107783	0.283595	-0.6309531	-0.7597784	-0.1561085
6.015123614357679e-10	0.8887689	-0.2691906	0.24501322	-0.60519	-0.76815134	-0.20831609
6.082860647127762e-10	0.91384995	-0.21588892	0.20938757	-0.57560956	-0.77410597	-0.26291084
6.151454377412842e-10	0.93559015	-0.15130942	0.1773032	-0.54168737	-0.77683157	-0.3206215
6.219875537266678e-10	0.95182663	-0.0775418	0.14999948	-0.5037954	-0.77508557	-0.3809836
6.288680810117436e-10	0.9610099	0.004274382	0.12790613	-0.46178034	-0.76720065	-0.4448843
6.357796317564067e-10	0.96168196	0.091906905	0.11165263	-0.41622797	-0.7508533	-0.5126266
6.427361700375323e-10	0.9528553	0.18296479	0.10168706	-0.36829376	-0.72287977	-0.584525
6.497607524672584e-10	0.93406224	0.27489758	0.09833907	-0.32021195	-0.67903066	-0.66052496
6.568718425846998e-10	0.9054625	0.36494392	0.101822	-0.27612484	-0.61393255	-0.7394544
6.640999513199656e-10	0.86783534	0.45048717	0.112217136	-0.24305587	-0.5212805	-0.8180301
6.714109053292629e-10	0.82302576	0.5283901	0.12929423	-0.23219046	-0.39657962	-0.8881508
6.788339341643828e-10	0.77316004	0.59671956	0.15269272	-0.25802654	-0.2392562	-0.9360335
6.862744953899135e-10	0.72158974	0.6531659	0.18140487	-0.33344495	-0.062221892	-0.94065523
6.937091315306479e-10	0.67124826	0.6971091	0.21437359	-0.4596821	0.10852958	-0.88126063
7.012824592241887e-10	0.62374485	0.7292911	0.2512925	-0.62111473	0.24204594	-0.74503994
7.090630126194927e-10	0.58112407	0.7498735	0.29159465	-0.78207815	0.311194	-0.53917336
7.167637938503608e-10	0.5467282	0.758841	0.33275455	-0.899348	0.31248537	-0.3041377
7.244758778731643e-10	0.52103335	0.75761604	0.37421829	-0.9594183	0.2697471	-0.07445869
7.322496729134903e-10	0.5043925	0.747188	0.41531798	-0.9686265	0.21087115	0.12655355
7.401299106017596e-10	0.49688053	0.7282434	0.455396	-0.9438785	0.15771294	0.28824168
7.481856759814103e-10	0.49832672	0.70108783	0.4939019	-0.90434355	0.12229791	0.40794152
7.562656158593714e-10	0.5080347	0.6667201	0.52928096	-0.8682446	0.10653631	0.48412243
7.643899694576216e-10	0.52482057	0.6256354	0.5609218	-0.847257	0.1012745	0.5212088
7.726694064276959e-10	0.54761815	0.57768494	0.58851916	-0.8451329	0.09159844	0.5263986
7.804973297793966e-10	0.5729516	0.5273407	0.6098422	-0.8563642	0.06611243	0.51174223
7.877312740650818e-10	0.59838957	0.47710618	0.62512183	-0.87046665	0.02425545	0.4911176
7.947985951449153e-10	0.62410307	0.42523903	0.6357461	-0.88105905	-0.03113246	0.47140113
8.018453499349789e-10	0.64973587	0.3715119	0.6419845	-0.88476276	-0.094639115	0.4558018
8.086945671595248e-10	0.67398155	0.318161	0.64383495	-0.88121676	-0.15810551	0.44511262
8.154626077088183e-10	0.69681543	0.26519293	0.64160633	-0.872267	-0.21800897	0.4375453
8.222230870642191e-10	0.71820444	0.21292575	0.63544255	-0.860191	-0.27279243	0.43077806
8.290031188792232e-10	0.73809016	0.16207704	0.62546235	-0.8470309	-0.3223549	0.42253414
8.355125327869982e-10	0.7557161	0.11560422	0.612503	-0.83468175	-0.36576372	0.411542
8.418887432159435e-10	0.7717064	0.073100775	0.5968395	-0.8233057	-0.40556324	0.3968115
8.482459574081759e-10	0.7865851	0.034422025	0.57857096	-0.8125394	-0.44363406	0.37776476
8.546520044013844e-10	0.80074435	-0.0001447224	0.5577973	-0.8018259	-0.48101857	0.354193
8.611375277292099e-10	0.81448996	-0.030006811	0.53470457	-0.7905994	-0.5180102	0.3262543
8.677344440366701e-10	0.8281195	-0.054512292	0.50949013	-0.7783886	-0.5544543	0.29428762
8.744578544873285e-10	0.84185755	-0.072891966	0.48245233	-0.7649531	-0.5897962	0.25878716
8.81249028392137e-10	0.85570455	-0.08428243	0.45425817	-0.75043476	-0.62302995	0.22062987
8.880505306868642e-10	0.8695483	-0.088163145	0.4256433	-0.73514736	-0.6533655	0.18059579
8.946876714788437e-10	0.88290465	-0.0845277	0.39785498	-0.71970886	-0.6798996	0.14001828
9.012960258652374e-10	0.8957926	-0.073604114	0.37080657	-0.7039225	-0.7032832	0.098169215
9.07949986692699e-10	0.90797067	-0.055370953	0.3446771	-0.6875527	-0.72386813	0.05445804
9.14644377589841e-10	0.9189184	-0.029998355	0.31998283	-0.6703752	-0.741737	0.008681236
9.21270785275921e-10	0.927907	0.0015912651	0.2975601	-0.6522881	-0.7567669	-0.0386483
9.278422193829414e-10	0.9344327	0.03864589	0.2777134	-0.63278425	-0.76915026	-0.08779286
9.344489951579307e-10	0.93804675	0.08084174	0.26052088	-0.61102855	-0.7790508	-0.13960983
9.41029818213822e-10	0.9382386	0.1268377	0.24645476	-0.5866408	-0.7861961	-0.19378063
9.475042482410209e-10	0.93477005	0.17489593	0.23583183	-0.5594995	-0.79020405	-0.24970196
9.53923108465767e-10	0.92757523	0.22417814	0.22861132	-0.5291412	-0.79059666	-0.30784824
9.603437253988512e-10	0.9166392	0.27396536	0.22477621	-0.49515563	-0.78648746	-0.36884558
9.668265293758777e-10	0.901994	0.323585	0.22435565	-0.45725107	-0.77641654	-0.43344867
9.734351265497185e-10	0.8837309	0.37235552	0.22743182	-0.41539255	-0.7580972	-0.50251174
9.8016496184035e-10	0.8622718	0.41905397	0.23405017	-0.37058294	-0.72841686	-0.5760791
9.869516289867265e-10	0.83848166	0.46215147	0.24405074	-0.32534304	-0.6837349	-0.65303683
9.937358187926227e-10	0.8134295	0.5004454	0.25707683	-0.28372583	-0.6201021	-0.7312783
1.0005441591724234e-09	0.7879506	0.5334925	0.27282384	-0.25130773	-0.53278685	-0.80792946
1.0074017231454633e-09	0.76288617	0.5609608	0.2909724	-0.23644844	-0.41762078	-0.8771486
1.0143367681053057e-09	0.7390446	0.58262616	0.31119865	-0.2503917	-0.27326667	-0.9285613
1.0214033983490873e-09	0.71712214	0.5983754	0.33324552	-0.3057139	-0.1047035	-0.9460534
1.0286003681727555e-09	0.6979464	0.6079978	0.35666052	-0.40992835	0.07001781	-0.9090212
1.0358331298944207e-09	0.6823952	0.61141014	0.3806347	-0.55349326	0.21913078	-0.80297524
1.0430984923916196e-09	0.6708485	0.6088719	0.40464047	-0.7091148	0.3141743	-0.6305657
1.0504572010254492e-09	0.6634383	0.60061646	0.42836848	-0.84333825	0.34367526	-0.41228318
1.0579876795783182e-09	0.66024756	0.5867087	0.45154318	-0.93151844	0.316443	-0.1777175
1.0656420511084494e-09	0.6612959	0.5674202	0.47347635	-0.9655475	0.25563908	0.042801477
1.0733035946892227e-09	0.66625684	0.5434474	0.49336043	-0.95476544	0.18780895	0.22932069
1.0809716958486553e-09	0.67460203	0.51534104	0.5108126	-0.91660595	0.13148433	0.3768984
1.0888369767857822e-09	0.68603545	0.48286003	0.52583903	-0.8671725	0.09495958	0.48857737
1.0969232370098038e-09	0.7001041	0.44633102	0.5379727	-0.82149947	0.07947346	0.56458247
1.104891828919119e-09	0.7155539	0.40800694	0.5464389	-0.79242074	0.07717189	0.60507107
1.1128039467909947e-09	0.73180735	0.36850238	0.551297	-0.78308284	0.07392545	0.6174365
1.1205912511046496e-09	0.74815655	0.32906258	0.5525911	-0.7896345	0.05731917	0.6107192
1.1278069532327843e-09	0.7632438	0.29278934	0.5507389	-0.8026413	0.024305936	0.5957196
1.1348159593730428e-09	0.7775926	0.25849843	0.54621893	-0.81480825	-0.023385301	0.5789827
1.141794721873985e-09	0.7914175	0.22593129	0.5391891	-0.8219298	-0.081684604	0.5634483
1.1485682138091014e-09	0.8043032	0.19641936	0.5301211	-0.822521	-0.14319059	0.55023324
1.155270598617305e-09	0.8164958	0.16978952	0.5191697	-0.81762564	-0.20439596	0.53815424
1.1619919002458195e-09	0.8281558	0.14614506	0.50643915	-0.8089931	-0.26338834	0.52546513
1.1686739107366694e-09	0.83919173	0.12611137	0.4923011	-0.7985815	-0.31863004	0.51057184
1.1751861635864742e-09	0.84942216	0.11027395	0.47736335	-0.7879963	-0.369339	0.49246264
1.181649671695891e-09	0.85906005	0.09843454	0.46167642	-0.77768886	-0.41723967	0.46999362
1.188168254754836e-09	0.86823475	0.09062043	0.44526976	-0.76754767	-0.46371263	0.44222748
1.194794557616231e-09	0.8769444	0.0870662	0.42828926	-0.75717485	-0.50938004	0.40857485
1.2015280616032854e-09	0.88506335	0.08804916	0.41103977	-0.7460692	-0.55406904	0.36897796
1.208170953409836e-09	0.89221954	0.09352729	0.39434206	-0.73408526	-0.5960362	0.32508904
1.2148542946180491e-09	0.8983994	0.10343173	0.3781715	-0.7206515	-0.63554823	0.27680832
1.2216481859021615e-09	0.9034391	0.11778595	0.36268392	-0.70536995	-0.67234313	0.22430684
1.2284740210407602e-09	0.9070302	0.13622141	0.34837973	-0.6882639	-0.705439	0.16889508
1.2352008480273561e-09	0.908924	0.15789765	0.3357748	-0.6696394	-0.7340065	0.11236444
1.241941579892732e-09	0.90900725	0.18260032	0.32485548	-0.6491722	-0.75851727	0.054333564
1.2487646580217053e-09	0.9071058	0.2100472	0.3157403	-0.6265422	-0.77914643	-0.005455532
1.255561402183285e-09	0.9031498	0.2391733	0.3087485	-0.6019714	-0.7955523	-0.0658966
1.262269370747292e-09	0.8972265	0.26898634	0.30399275	-0.5755765	-0.80767345	-0.12645015
1.2689812063577611e-09	0.88937116	0.29919183	0.30141926	-0.5468211	-0.8156118	-0.18817118
1.275767606204306e-09	0.879631	0.32942688	0.30104366	-0.51509494	-0.81901884	-0.25214908
1.2826428587469138e-09	0.8681716	0.35906684	0.3029003	-0.4799412	-0.8170395	-0.3191422
1.2894926689623354e-09	0.85548794	0.38697934	0.30689454	-0.4416712	-0.80848444	-0.38868457
1.2963630139951531e-09	0.84188265	0.4127981	0.31290993	-0.40002018	-0.7915638	-0.46178046
1.30331136332193e-09	0.8276559	0.4362154	0.32085532	-0.35504392	-0.7634407	-0.5393995
1.3104041068938552e-09	0.8131198	0.45692787	0.3306659	-0.30759475	-0.7197895	-0.6222063
1.3175462670629151e-09	0.7989466	0.4742275	0.34201136	-0.26126724	-0.6560271	-0.7079545
1.324773228440841e-09	0.78553826	0.4879011	0.3546886	-0.22140504	-0.565977	-0.7939954
1.3321107347994121e-09	0.773304	0.4977435	0.36846358	-0.19724768	-0.4433232	-0.8742057
1.3394665412514228e-09	0.7627827	0.50352293	0.38284612	-0.2023696	-0.28705698	-0.9360341
1.3468842746217823e-09	0.7542037	0.50529134	0.3975849	-0.25177157	-0.10222973	-0.9620004
1.3544297290575272e-09	0.7477404	0.50307	0.41247058	-0.3568117	0.0929521	-0.9290121
1.3621384213596473e-09	0.7435686	0.49685	0.42721587	-0.5128257	0.26346284	-0.8163487
1.3698470326834405e-09	0.7418275	0.4869343	0.44115883	-0.6855773	0.36809152	-0.62718344
1.3776000190250932e-09	0.7424085	0.47358465	0.45406312	-0.8331556	0.3923598	-0.38862056
1.3854466217556268e-09	0.7451766	0.45703027	0.46569967	-0.9263661	0.34941298	-0.13822733
1.393345515581553e-09	0.74991095	0.43772745	0.47572356	-0.95851433	0.2688896	0.091146514
1.4012424804519985e-09	0.7562891	0.41627797	0.48385224	-0.9415917	0.1809317	0.282679
1.409246513982302e-09	0.76409805	0.39288428	0.49000934	-0.8934635	0.10524342	0.43575722
1.4173920531985557e-09	0.7730882	0.3679642	0.49402297	-0.8315061	0.053200975	0.5524922
1.4255399115659462e-09	0.78280103	0.34254527	0.4957207	-0.7724663	0.027798843	0.63430345
1.4336017145600284e-09	0.7928247	0.3175472	0.49513435	-0.7285388	0.022086438	0.6846325
1.441699676249031e-09	0.80305225	0.29322493	0.49234745	-0.7051066	0.023107115	0.70862204
1.4495595908026085e-09	0.8129292	0.27096003	0.48765475	-0.7017776	0.017050695	0.7119087
1.4567766857043662e-09	0.8218163	0.25214747	0.48175985	-0.71044004	-0.00307246	0.7033359
1.463706606159274e-09	0.83008796	0.23592225	0.47481826	-0.7229526	-0.038056187	0.6893898
1.4706121170579087e-09	0.83799887	0.22185443	0.46681345	-0.7341845	-0.086388916	0.673012
1.4773364516236055e-09	0.84532046	0.21042007	0.45814314	-0.74091804	-0.14247069	0.65598905
1.4839948741440753e-09	0.852141	0.20149648	0.44888186	-0.7426748	-0.20260403	0.63806915
1.490692166724672e-09	0.8585125	0.195078	0.4390715	-0.7401798	-0.26432136	0.61817694
1.4974329389165476e-09	0.8643678	0.19130823	0.42888924	-0.7347032	-0.32549372	0.59512556
1.5040577098695573e-09	0.86951125	0.19027929	0.41877222	-0.72771496	-0.38366312	0.56839967
1.5106768477561264e-09	0.8739749	0.19189295	0.40874326	-0.7200035	-0.4395495	0.5367633
1.5173922351425896e-09	0.87773794	0.1961659	0.39883783	-0.71178526	-0.4939262	0.4990023
1.5242604891464106e-09	0.8807074	0.20315856	0.38917804	-0.7028788	-0.5470106	0.454177
1.5310845503832945e-09	0.882698	0.21255086	0.38023317	-0.6931491	-0.5968889	0.4034898
1.5378410560852384e-09	0.88365656	0.22401974	0.37218058	-0.6821568	-0.6429429	0.3476708
1.5446594184804725e-09	0.8835473	0.23750213	0.36501014	-0.66918457	-0.68545806	0.2863571
1.5516254490914415e-09	0.8822825	0.25292164	0.3588047	-0.6535046	-0.72420615	0.21948932
1.5586683774347154e-09	0.8798101	0.26981798	0.35378954	-0.6347512	-0.7581121	0.14863226
1.5657001638061921e-09	0.87617016	0.28758496	0.35012424	-0.6128098	-0.7864078	0.075721234
1.5728020704307387e-09	0.8713715	0.3060044	0.34783256	-0.5871819	-0.80924094	0.00088112534
1.579979821393913e-09	0.8654842	0.3246594	0.34697306	-0.5576415	-0.8264296	-0.07519139
1.5870766264588098e-09	0.85878503	0.34271368	0.34754616	-0.5248413	-0.83756304	-0.15035841
1.5941632654289558e-09	0.8514042	0.35995495	0.34948182	-0.4886052	-0.84267604	-0.22527228
1.6013223677968198e-09	0.8434569	0.37620556	0.35274127	-0.4485949	-0.8412616	-0.30110747
1.6086209518304416e-09	0.83508587	0.39122844	0.35730177	-0.40445736	-0.8320178	-0.37926918
1.6160556374200958e-09	0.8265416	0.40463072	0.3630879	-0.35631102	-0.81272674	-0.46072882
1.6235264407014706e-09	0.8182055	0.41592383	0.36988994	-0.30532712	-0.78048396	-0.5453775
1.631103335292035e-09	0.8102678	0.4249702	0.3776039	-0.25245696	-0.73045874	-0.6344762
1.6387103707455168e-09	0.80306035	0.43149966	0.385961	-0.20144825	-0.65712774	-0.7262862
1.646387789168363e-09	0.79676485	0.43544838	0.3947919	-0.1583904	-0.5530484	-0.81788415
1.654182734297551e-09	0.79154223	0.43676054	0.40392995	-0.13436732	-0.410353	-0.90188146
1.662166641683976e-09	0.78753024	0.43537068	0.41322452	-0.14720356	-0.22408296	-0.9632405
1.6700375680056567e-09	0.7849575	0.43143237	0.42209	-0.21527973	-0.011751035	-0.97622913
1.677831941380422e-09	0.7837645	0.42520425	0.43036634	-0.3453464	0.19673279	-0.91720647
1.6857074504388975e-09	0.7838826	0.41678578	0.43802682	-0.5240209	0.36075765	-0.77088976
1.6937022373444222e-09	0.7852743	0.40632665	0.444905	-0.710508	0.44154495	-0.5470052
1.7016715592004022e-09	0.78781307	0.39429116	0.4507091	-0.8545937	0.4310832	-0.28803736
1.7097578772132636e-09	0.7914099	0.3807821	0.45540047	-0.93410695	0.35429686	-0.032372743
1.7177914039859161e-09	0.79583156	0.36643383	0.45877752	-0.94974506	0.24821582	0.18776602
1.7257726912123892e-09	0.80088764	0.35163882	0.46081346	-0.91940784	0.14237645	0.3647294
1.7338270415076343e-09	0.8064874	0.33654794	0.46151844	-0.8615474	0.053387076	0.5034952
1.7420420479040153e-09	0.8125424	0.32139122	0.4608604	-0.7916926	-0.009910032	0.6100484
1.7501456427170832e-09	0.8186977	0.3070629	0.45890272	-0.7257952	-0.044248886	0.68620294
1.7581333379430357e-09	0.82480276	0.2939055	0.45578516	-0.67370963	-0.05637797	0.7368206
1.7661808510652592e-09	0.8308662	0.28195217	0.45156443	-0.64023435	-0.057333514	0.76596725
1.7741426113779562e-09	0.836666	0.27170444	0.44645786	-0.62706006	-0.05966974	0.7763666
1.781530524967922e-09	0.8417816	0.26381543	0.44102722	-0.62924397	-0.072478876	0.77327627
1.7885875786163997e-09	0.8463575	0.25788605	0.43534702	-0.6389333	-0.098740324	0.76224446
1.7955393884414387e-09	0.850507	0.25368124	0.4294069	-0.650599	-0.13825464	0.74609566
1.8022902372073233e-09	0.8541427	0.25121224	0.42343202	-0.6604072	-0.18726769	0.7266592
1.8090093331974572e-09	0.85732687	0.25035912	0.41740137	-0.6669314	-0.24313852	0.7039659
1.8158102416809522e-09	0.8600619	0.25111717	0.41133112	-0.6699256	-0.30357188	0.6772982
1.8227311855657551e-09	0.86229634	0.2535199	0.40530956	-0.66982436	-0.36633754	0.6456934
1.8295875073052048e-09	0.86392415	0.2574454	0.39961514	-0.667457	-0.4279251	0.60921025
1.8364934417169663e-09	0.86494136	0.262843	0.3942617	-0.66348994	-0.4882221	0.56661904
1.8435522940582111e-09	0.8653099	0.2697102	0.3892904	-0.6581186	-0.5472818	0.51658857
1.8506821157875825e-09	0.8649787	0.27784967	0.3848781	-0.6512618	-0.6036178	0.45925733
1.857715306984152e-09	0.8639592	0.28685898	0.38120505	-0.642711	-0.65522444	0.39623606
1.8647559999949505e-09	0.86226493	0.29663092	0.37826675	-0.63183576	-0.702215	0.32729405
1.871933313370877e-09	0.85987824	0.30712593	0.376079	-0.61775637	-0.74460304	0.251907
1.879267985352362e-09	0.8568062	0.31814468	0.37471503	-0.59963864	-0.7815664	0.17076287
1.8866160490354696e-09	0.8531639	0.3292114	0.37424138	-0.5771943	-0.81174254	0.086690746
1.8940722775037166e-09	0.8489883	0.34019858	0.37466174	-0.5496675	-0.83513194	-6.453777e-05
1.9016734744215815e-09	0.844355	0.3508795	0.3759892	-0.5165186	-0.8513988	-0.08874355
1.909223133788878e-09	0.83951116	0.3607216	0.37814906	-0.47857764	-0.8599161	-0.17615408
1.9167733576622427e-09	0.83456856	0.36958292	0.3810717	-0.43590784	-0.86058223	-0.26250198
1.9244210814444866e-09	0.82961047	0.37737072	0.38471472	-0.38832068	-0.85260355	-0.34904808
1.9322493918611855e-09	0.82473797	0.3839469	0.38904047	-0.33569342	-0.83401394	-0.4374435
1.9402196873274657e-09	0.8201386	0.3890711	0.3939311	-0.27897483	-0.8016565	-0.528422
1.948338066315133e-09	0.81596935	0.39258224	0.3992669	-0.21960168	-0.75045574	-0.6232075
1.9564504770088134e-09	0.81244236	0.39433885	0.40479806	-0.1619114	-0.6746606	-0.7200591
1.964609955728235e-09	0.809631	0.3943576	0.41040212	-0.1119898	-0.5656408	-0.8169563
1.9728821137111624e-09	0.80759573	0.39265335	0.41596508	-0.08165355	-0.41343844	-0.90680957
1.9813391489460745e-09	0.80639166	0.38923228	0.4213696	-0.09137513	-0.21113521	-0.97308254
1.989572899044697e-09	0.8060653	0.38442084	0.4262155	-0.16281766	0.01966114	-0.9862698
1.9975845889041855e-09	0.8065155	0.37850684	0.43042025	-0.30218908	0.24230672	-0.921577
2.0055331992899105e-09	0.80765784	0.37162322	0.4339994	-0.49177864	0.4112087	-0.76689386
2.013565366856886e-09	0.80944663	0.3638437	0.43693894	-0.6886512	0.48856455	-0.53484005
2.0217745009876623e-09	0.8118471	0.35526782	0.43917766	-0.8436224	0.46672612	-0.26371914
2.029837405474956e-09	0.81467247	0.3464678	0.44058338	-0.92603356	0.3760439	-0.009096043
2.037949122803977e-09	0.8178803	0.33748	0.44118795	-0.94347215	0.25435823	0.20941143
2.0460858151503186e-09	0.8213626	0.3285699	0.4409851	-0.91289914	0.13196173	0.3840478
2.0542388645095596e-09	0.8250167	0.31998274	0.43999794	-0.8535607	0.02765219	0.51853126
2.0625208847684243e-09	0.8287987	0.31183833	0.4382424	-0.78088576	-0.050267555	0.6215329
2.0705885467005994e-09	0.8324621	0.3046694	0.43587035	-0.71084595	-0.09733826	0.69608045
2.0785646721884e-09	0.8359842	0.29849848	0.4329632	-0.6515856	-0.11987378	0.7489563
2.086613187117972e-09	0.83936423	0.2933435	0.429556	-0.6081776	-0.12683243	0.7835853
2.094690278599343e-09	0.8425117	0.28937182	0.42576247	-0.58395135	-0.12911128	0.8012036
2.1024333698886934e-09	0.8452399	0.28677386	0.4218778	-0.57749736	-0.13721365	0.80421096
2.109742966234131e-09	0.8475087	0.28544772	0.41808212	-0.5822682	-0.15655077	0.7970073
2.1168498705372276e-09	0.84939206	0.2852172	0.41435716	-0.5921757	-0.18840364	0.78265435
2.1237267552795074e-09	0.85088235	0.2859741	0.41079646	-0.60283196	-0.23061882	0.7630787
2.1305647649247193e-09	0.852017	0.2876487	0.40736872	-0.6120094	-0.281266	0.738572
2.1375012340664315e-09	0.85279596	0.2902334	0.4040738	-0.6187154	-0.33844653	0.70857453
2.1446112122114565e-09	0.85319275	0.29373306	0.40095264	-0.6226913	-0.40013635	0.6721344
2.1517419143313136e-09	0.85317594	0.2980118	0.39814374	-0.6240964	-0.46269247	0.6293473
2.158945544397418e-09	0.8527392	0.30300167	0.39568695	-0.6233287	-0.5247672	0.5793626
2.166283378181385e-09	0.8518719	0.30864096	0.39362457	-0.62049365	-0.5854635	0.5212244
2.173583740614175e-09	0.8506072	0.31466436	0.39204952	-0.61548334	-0.6421946	0.45620608
2.1808751055271167e-09	0.8489753	0.3209408	0.3909751	-0.60788465	-0.694218	0.3845284
2.1882206364680493e-09	0.84699976	0.3273725	0.39040887	-0.59701765	-0.7410212	0.3062809
2.195754957345194e-09	0.8446806	0.33392206	0.39036623	-0.58184075	-0.78235537	0.22088327
2.2033563263051473e-09	0.84210384	0.34032005	0.39086193	-0.561732	-0.81656635	0.1309097
2.2110178347212613e-09	0.8393385	0.34640032	0.39188203	-0.53605795	-0.8430223	0.037958235
2.2188458109884657e-09	0.8364199	0.35208333	0.39342272	-0.5039015	-0.86152744	-0.05775112
2.226791068151578e-09	0.83344907	0.35716966	0.39544606	-0.46510515	-0.8714022	-0.15427275
2.234721972663746e-09	0.8305638	0.36144853	0.39786056	-0.4204687	-0.8721309	-0.2491052
2.2427266692266023e-09	0.827819	0.36486888	0.40062022	-0.3699999	-0.8630714	-0.34306097
2.2509183788193876e-09	0.82526726	0.36737025	0.4036923	-0.31358406	-0.84228384	-0.4379087
2.2591989631829762e-09	0.8230275	0.36883557	0.40695682	-0.25289476	-0.80680645	-0.53360677
2.2676541263859554e-09	0.82115746	0.3692238	0.41035253	-0.18915558	-0.75097966	-0.6324409
2.2761872454643612e-09	0.8197464	0.36850876	0.41373843	-0.12685171	-0.66750133	-0.7336085
2.284767926297263e-09	0.81884027	0.36672986	0.4169988	-0.07386577	-0.54675704	-0.8339685
2.2934731110279604e-09	0.8184564	0.36393297	0.42006058	-0.04447404	-0.37701833	-0.9250948
2.302087000799829e-09	0.8185965	0.36030135	0.4227606	-0.062079597	-0.15946174	-0.9851724
2.3104702014017074e-09	0.819201	0.35607427	0.42500478	-0.14806038	0.08405629	-0.9852178
2.318588573583931e-09	0.8201879	0.35146406	0.42676768	-0.30492827	0.30897075	-0.9004893
2.326395347055545e-09	0.8214663	0.34667993	0.42804846	-0.50183547	0.46310085	-0.72989553
2.3344614697366e-09	0.82307667	0.3415119	0.42892164	-0.7017422	0.52143866	-0.48440084
2.3426709907924885e-09	0.82496005	0.33616388	0.42932817	-0.8514688	0.47932202	-0.21054134
2.3506498028062908e-09	0.8269666	0.33102298	0.4292578	-0.92595816	0.37452585	0.03636594
2.358781972854435e-09	0.8291266	0.32597956	0.42872888	-0.93764627	0.24208283	0.24659486
2.36700310333229e-09	0.83136433	0.32121488	0.4277532	-0.9028269	0.111242056	0.4131239
2.375219117504428e-09	0.8335937	0.31691027	0.42637604	-0.8408251	0.00094715785	0.53949183
2.3834047968974285e-09	0.83575237	0.31318235	0.4246546	-0.7679206	-0.0806396	0.63423216
2.3914384244279017e-09	0.83776176	0.3101544	0.42268246	-0.6972066	-0.13210827	0.7040156
2.3994202083840012e-09	0.83960825	0.30783135	0.42050633	-0.63620186	-0.15897506	0.7548479
2.4074363175219735e-09	0.8412746	0.30623335	0.4181676	-0.59009707	-0.16925925	0.7893815
2.4153890671522534e-09	0.8427085	0.3054029	0.4157611	-0.5622562	-0.17294315	0.80844575
2.4233242156251907e-09	0.8438935	0.30533004	0.4133401	-0.55153495	-0.18028224	0.8138467
2.4308014657020684e-09	0.84476495	0.30593958	0.41109863	-0.55345446	-0.19742207	0.80829203
2.438005291870534e-09	0.8453655	0.30712253	0.40902516	-0.5618389	-0.22619247	0.7947862
2.4449759477221625e-09	0.84571517	0.3087873	0.40714088	-0.57223415	-0.26527148	0.7751346
2.451917296686563e-09	0.84583306	0.31090778	0.40541998	-0.5821717	-0.31321147	0.7496111
2.458972993178088e-09	0.8457181	0.31348065	0.40386254	-0.59036154	-0.36839402	0.7176456
2.466223721687623e-09	0.8453586	0.31649518	0.4024933	-0.5962164	-0.42889982	0.67827636
2.473492402482733e-09	0.8447632	0.31981695	0.40138096	-0.59951884	-0.49079746	0.6318752
2.480820686631596e-09	0.84394073	0.32338524	0.40054235	-0.6004491	-0.55237675	0.577811
2.4882531255825156e-09	0.8429006	0.3271383	0.3999945	-0.5989844	-0.6123404	0.5154358
2.495674769632732e-09	0.8416816	0.33092797	0.3997569	-0.59487873	-0.66837084	0.4457843
2.5031594899456198e-09	0.84030175	0.33469948	0.39982837	-0.587587	-0.71980786	0.3686506
2.5107394573408406e-09	0.83878684	0.33837557	0.40020925	-0.5763318	-0.76566356	0.2844348
2.518487882301833e-09	0.8371576	0.3418941	0.4009014	-0.5600761	-0.8051593	0.19334817