# t (s)	mx ()	my ()	mz ()	m.region1x ()	m.region1y ()	m.region1z ()
0	0	1	0	0	1	0
1.023e-12	-0.02433167	0.9995737	0.015727935	-0.027436249	0.99947894	0.017005147
2.047e-12	-0.04806798	0.9983195	0.031547945	-0.05421373	0.99794656	0.03411038
4.095e-12	-0.09359864	0.99349	0.06335821	-0.10559292	0.9920484	0.068484195
8.191e-12	-0.17645991	0.97565573	0.12726995	-0.19904612	0.9703211	0.13731936
1.5448673059212195e-11	-0.29521626	0.9236479	0.23941295	-0.3325896	0.90747505	0.25663936
2.2642941234959054e-11	-0.37815174	0.855815	0.34639147	-0.42579487	0.82667124	0.36780044
2.996310833284095e-11	-0.4304129	0.77863634	0.44866362	-0.48580202	0.7362862	0.47094604
3.7493855677476884e-11	-0.45553398	0.6963479	0.54548335	-0.5181442	0.6416198	0.56540316
4.5288003676674696e-11	-0.45695457	0.6113424	0.63585013	-0.52804387	0.54553765	0.6506002
5.335043181359077e-11	-0.4383324	0.5247727	0.71832067	-0.52045244	0.44939294	0.72578686
6.164755532466036e-11	-0.40381762	0.43677944	0.7912441	-0.5001708	0.35346273	0.79014724
7.016064639130807e-11	-0.35774678	0.3463753	0.85326535	-0.4716133	0.25691068	0.8431133
7.890659806984094e-11	-0.3041901	0.25177264	0.9032283	-0.43853188	0.15813681	0.88415664
8.793211667223355e-11	-0.2467985	0.15093212	0.9398244	-0.40399373	0.055271856	0.9124289
9.728364502956315e-11	-0.18890047	0.042321596	0.9612865	-0.37048122	-0.05318254	0.9264949
1.0699485120310007e-10	-0.13330168	-0.0744918	0.9654363	-0.33971655	-0.16793524	0.92438495
1.167290784374809e-10	-0.08337	-0.19401951	0.9508195	-0.31304774	-0.2843693	0.90487516
1.2562597467452368e-10	-0.04209638	-0.3030848	0.92108977	-0.29088548	-0.39076087	0.871736
1.341570081203134e-10	-0.004344273	-0.4049894	0.8782444	-0.26913923	-0.49131858	0.8264224
1.4263057376051982e-10	0.034499366	-0.50094926	0.82238424	-0.24374275	-0.5882252	0.76874596
1.5116261025577641e-10	0.07890633	-0.5892882	0.7536043	-0.21025199	-0.6809787	0.6986243
1.595365938822e-10	0.13187337	-0.6645175	0.6749843	-0.1651804	-0.76505756	0.6189627
1.6769380735870005e-10	0.19621387	-0.72295415	0.5891737	-0.10532072	-0.8374248	0.53209937
1.7573122768488157e-10	0.27472126	-0.7615404	0.49738187	-0.027169501	-0.8956135	0.43877685
1.8358038341339659e-10	0.36702338	-0.7756299	0.40282863	0.070174076	-0.93474025	0.34161314
1.913567974346643e-10	0.47258696	-0.7605843	0.30688307	0.18806735	-0.94968283	0.24115963
1.991134713102397e-10	0.5878009	-0.71068764	0.21208076	0.3253655	-0.93294436	0.13898322
2.067177403253449e-10	0.7030517	-0.62294596	0.12374242	0.47406465	-0.87718576	0.039714653
2.1410930632444523e-10	0.8073046	-0.4984678	0.046313897	0.6230792	-0.7778499	-0.052391533
2.2146472525658774e-10	0.891741	-0.33782792	-0.018222364	0.7626308	-0.62959427	-0.13533491
2.2887787429336833e-10	0.9454032	-0.14548159	-0.0664527	0.8773688	-0.43003115	-0.2046988
2.3624296461248726e-10	0.957981	0.06402449	-0.094139636	0.94699234	-0.18931943	-0.25340536
2.4352028298608635e-10	0.9261869	0.27366394	-0.0994633	0.9567446	0.073820256	-0.27598608
2.507659039878036e-10	0.85299754	0.468804	-0.082441345	0.90047824	0.33720967	-0.2689567
2.58016317947301e-10	0.7465898	0.6365172	-0.04430944	0.7821677	0.5757558	-0.23086376
2.6526212990995477e-10	0.61969316	0.7672844	0.012132503	0.6176399	0.7666159	-0.16369759
2.7259962962471216e-10	0.48461097	0.8585528	0.084043525	0.42770198	0.8983939	-0.071493894
2.801258019994821e-10	0.35293245	0.91097975	0.16855639	0.23452158	0.9682968	0.0402194
2.879228788716424e-10	0.23508462	0.92753464	0.26258963	0.058168355	0.9811974	0.16484356
2.96041509218352e-10	0.1397953	0.9128963	0.36258462	-0.086205766	0.9475985	0.2952283
3.042715725615616e-10	0.07449687	0.8740915	0.46186715	-0.1881351	0.882695	0.42122346
3.1274960710318346e-10	0.039024364	0.8167908	0.5584732	-0.2503347	0.79820746	0.54018414
3.216260486625698e-10	0.032291297	0.74384093	0.650636	-0.27738422	0.7007223	0.65069824
3.310404788708115e-10	0.05258609	0.65573144	0.73596036	-0.27431405	0.5927938	0.75135803
3.408267606693383e-10	0.09549999	0.5542034	0.8090492	-0.24769583	0.4772671	0.83778816
3.509095454987947e-10	0.15416873	0.4397064	0.8659061	-0.20578575	0.3538321	0.9073337
3.6096840959462964e-10	0.21913187	0.31637156	0.902477	-0.15811469	0.2247348	0.9565361
3.709330889062529e-10	0.283275	0.18733846	0.9178057	-0.11185847	0.09028187	0.98455244
3.8098226476865177e-10	0.34339932	0.05414991	0.91173506	-0.070782624	-0.05109396	0.9908518
3.91238930761648e-10	0.39838746	-0.07929259	0.8835825	-0.036650054	-0.19872257	0.97357774
4.0127679916753546e-10	0.4472546	-0.20081836	0.83581287	-0.009667631	-0.34241393	0.93305564
4.1108865752395643e-10	0.49376196	-0.3042395	0.7718863	0.014832032	-0.47742355	0.871248
4.2100487053718885e-10	0.5440876	-0.38668126	0.6928976	0.04462007	-0.60330486	0.7878193
4.3062707804864605e-10	0.6001331	-0.43930444	0.60592586	0.0864615	-0.7100599	0.68889165
4.398671592707528e-10	0.6626307	-0.45902944	0.5166234	0.1461473	-0.79270047	0.5799536
4.489739809368386e-10	0.7317277	-0.44426587	0.42714417	0.22937909	-0.84838635	0.46238405
4.5792301281302224e-10	0.8029069	-0.39328372	0.3421422	0.33739656	-0.86987776	0.340565
4.668816126593121e-10	0.87030566	-0.3048001	0.26460698	0.46970922	-0.8482468	0.21662632
4.756621164976998e-10	0.923511	-0.18386626	0.20054805	0.61508685	-0.77450156	0.09827884
4.844718151195805e-10	0.95456463	-0.03497137	0.15242828	0.76158553	-0.63926995	-0.011032361
4.932729986969046e-10	0.9556967	0.13043998	0.12394206	0.8865181	-0.4397495	-0.10300906
5.020196648294686e-10	0.9240476	0.2973857	0.11703985	0.96351665	-0.18526073	-0.16843848
5.108529542836572e-10	0.86149335	0.45381162	0.13194226	0.9700924	0.10637339	-0.19922787
5.198074243408446e-10	0.7749821	0.5871081	0.16772565	0.8925623	0.40111282	-0.18743591
5.287626125258242e-10	0.6771832	0.6868278	0.22085154	0.74007356	0.6539981	-0.13089246
5.37813697886514e-10	0.5797374	0.75083923	0.28749543	0.54034024	0.8357166	-0.034073334
5.469831942912509e-10	0.4935376	0.7801073	0.3630734	0.33151403	0.9334839	0.09245711
5.563050623340221e-10	0.42644095	0.7783278	0.44303447	0.14743784	0.95432466	0.23527148
5.658993458328199e-10	0.3826084	0.74974644	0.5237695	0.007677853	0.9160681	0.38297546
5.758528925071221e-10	0.3638917	0.69777536	0.60147285	-0.08031807	0.83722687	0.52627414
5.860239260904819e-10	0.36937433	0.62649596	0.6707748	-0.11829623	0.7342056	0.6559157
5.964073152314648e-10	0.39487836	0.5389518	0.7279365	-0.11634965	0.6160699	0.7677594
6.072239548197946e-10	0.43573824	0.4356575	0.7703987	-0.085553266	0.48316205	0.86090714
6.186704859796667e-10	0.4871911	0.317462	0.7944577	-0.036003675	0.33215946	0.93251926
6.307953551965532e-10	0.54390323	0.188918	0.7955754	0.02149043	0.16071764	0.9766613
6.430027935068363e-10	0.5990527	0.064834304	0.7719337	0.074298866	-0.021278797	0.9862153
6.547895048289306e-10	0.64975077	-0.040354364	0.72772604	0.1164043	-0.20002389	0.96071774
6.666219455505607e-10	0.6998234	-0.12206405	0.6659853	0.15260305	-0.37369975	0.90059763
6.782811885943049e-10	0.7504553	-0.1709058	0.593138	0.19106747	-0.5290719	0.80926985
6.892708456163096e-10	0.79977226	-0.18229844	0.5189699	0.24118517	-0.6513754	0.69756293
6.999988324637046e-10	0.84721136	-0.15775149	0.44693214	0.3136624	-0.7381421	0.5694495
7.107646175054665e-10	0.8891661	-0.09749185	0.38061288	0.41678703	-0.78105557	0.42818472
7.212064366284504e-10	0.9179023	-0.008414442	0.32714227	0.54588133	-0.7669251	0.28626767
7.31375256452661e-10	0.9283535	0.100257814	0.28950387	0.6897713	-0.6868101	0.15171677
7.415009238399973e-10	0.9174762	0.21989827	0.26906553	0.830828	-0.5318375	0.031199444
7.516424318366663e-10	0.8847604	0.33940297	0.26696295	0.9399799	-0.30109826	-0.06424489
7.618182242520192e-10	0.8336096	0.44752795	0.2828908	0.9835638	-0.010994653	-0.12167549
7.718650548423508e-10	0.77200246	0.53388137	0.3142658	0.9384463	0.29536793	-0.12980409
7.81846797535044e-10	0.7081997	0.59451604	0.3575582	0.80767083	0.57024896	-0.085417315
7.919971372922726e-10	0.648791	0.62896514	0.40988827	0.61626345	0.77618885	0.008483114
8.022830425903985e-10	0.6006414	0.63730466	0.46702668	0.40905073	0.8896417	0.13947248
8.128702073162931e-10	0.5676581	0.6213367	0.52566326	0.22589746	0.91518676	0.29233187
8.238126745453503e-10	0.5522477	0.5831052	0.58178294	0.09387427	0.8713202	0.45061302
8.351114975240808e-10	0.55449307	0.52532834	0.63107884	0.02180131	0.7802419	0.6003999
8.470225187011134e-10	0.5727241	0.44960514	0.6701733	0.00395778	0.6556188	0.73475826
8.593745929987493e-10	0.60330075	0.36099774	0.6942334	0.028547911	0.50689965	0.8441106
8.723958200435281e-10	0.64252543	0.2638566	0.7000474	0.08015267	0.3333596	0.9236053
8.863296220057455e-10	0.68737763	0.16529849	0.6843854	0.14393589	0.13202591	0.9652819
9.00696180122989e-10	0.7337136	0.08086846	0.6472997	0.20459919	-0.0848163	0.9584951
9.148604271701322e-10	0.7783042	0.025442932	0.5950285	0.25664398	-0.29390392	0.9011959
9.285643829024886e-10	0.81924576	0.0058503407	0.53616583	0.309043	-0.4742031	0.8002664
9.416958800394774e-10	0.8537659	0.02195356	0.47896862	0.3768551	-0.6086658	0.6677468
9.545485736244275e-10	0.8787182	0.06971056	0.42873842	0.47422358	-0.6853745	0.513563
9.670502461611335e-10	0.8897637	0.14112087	0.39079705	0.6033232	-0.68799156	0.35228825
9.791550535631122e-10	0.8845616	0.22505054	0.36815014	0.7503945	-0.6035333	0.19944789
9.908248104098058e-10	0.86400473	0.30979082	0.36135283	0.88598734	-0.42892945	0.07081918
1.0023216176382539e-09	0.8310741	0.3874271	0.36919704	0.97470397	-0.17222343	-0.020837849
1.0129603582196893e-09	0.7934406	0.44726458	0.38805196	0.98338	0.11353321	-0.060196925
1.0231599660682136e-09	0.7554066	0.48973626	0.41458043	0.9110467	0.38904387	-0.04830816
1.0334546734511114e-09	0.7194167	0.51588845	0.4472456	0.7694821	0.6234121	0.013358661
1.0442499309738336e-09	0.68814945	0.5250633	0.48485973	0.58364993	0.7879735	0.12200834
1.0556767469836011e-09	0.66519284	0.5158407	0.5249716	0.39471063	0.8632792	0.2669114
1.0671286279338388e-09	0.65385985	0.48973638	0.5621147	0.2503957	0.8544113	0.42145997
1.0789191634248268e-09	0.6538688	0.4488114	0.59412456	0.16296066	0.78516686	0.5724157
1.0908813169605664e-09	0.66406715	0.39691377	0.61772496	0.13223693	0.6762079	0.7054984
1.1033706069926607e-09	0.682826	0.33652335	0.63112813	0.14634846	0.5359154	0.81603515
1.1168198486128945e-09	0.7088908	0.27059817	0.6319608	0.19297992	0.3631696	0.89822894
1.1306748232989718e-09	0.7388801	0.20885888	0.6186957	0.25450537	0.16811447	0.93962896
1.1454674767748357e-09	0.7715883	0.15780917	0.5912068	0.31951773	-0.04897014	0.93257195
1.160798830844237e-09	0.8036828	0.12845257	0.5528029	0.38175353	-0.26525694	0.8688602
1.176042618379427e-09	0.8309105	0.12752734	0.5107199	0.44859073	-0.4466404	0.7531578
1.1907689768777568e-09	0.8493986	0.15350932	0.4726227	0.5354244	-0.5633921	0.6025103
1.204967744781131e-09	0.85671085	0.19945438	0.44352788	0.65134245	-0.59557754	0.43669173
1.2187814799910338e-09	0.8519136	0.25669527	0.4260846	0.788173	-0.5275288	0.27516422
1.2320521980372799e-09	0.8363106	0.31509787	0.4211985	0.91366947	-0.35634178	0.14108044
1.2439222731380176e-09	0.8150347	0.3635617	0.42676008	0.98382545	-0.12243565	0.05738061
1.254933461426121e-09	0.79164726	0.40090665	0.4394143	0.9843067	0.13557751	0.023879804
1.2656571227953474e-09	0.7681458	0.42751873	0.4572721	0.91472304	0.3852377	0.03896196
1.2766762715281658e-09	0.745874	0.44334102	0.47949412	0.78449535	0.5980781	0.10220626
1.2880785458493468e-09	0.7271662	0.4470715	0.50444275	0.6217102	0.74201596	0.20785458
1.2994595129904294e-09	0.71448433	0.43872178	0.52907234	0.4701093	0.8025097	0.33703548
1.3110974398656387e-09	0.7083937	0.4193871	0.55180806	0.35443142	0.7920405	0.47539195
1.3231702145068785e-09	0.70919406	0.39029795	0.5708134	0.28697664	0.7254636	0.61001503
1.3358307126826476e-09	0.71673894	0.35325366	0.58411425	0.26849732	0.6149222	0.7299651
1.3490338996432174e-09	0.73017	0.31162325	0.5897222	0.29081547	0.46983197	0.82433075
1.3629932003486027e-09	0.7483493	0.26920122	0.5863008	0.34067902	0.2938307	0.8848938
1.3775712732340346e-09	0.76933575	0.23200524	0.5734621	0.40298927	0.09609409	0.90163064
1.392843278456119e-09	0.79108834	0.20599256	0.55226	0.4679991	-0.10985909	0.8667895
1.4086272123590274e-09	0.81079805	0.19684112	0.52578884	0.53580284	-0.29703707	0.77754265
1.4248751915908542e-09	0.82544357	0.20735508	0.49847335	0.61891717	-0.43152228	0.6398974
1.4408275765322027e-09	0.83185124	0.23490295	0.47621742	0.7254897	-0.47458127	0.47853404
1.4562318468688294e-09	0.82921344	0.27239373	0.46244416	0.84569156	-0.4070129	0.32259363
1.4702733379007506e-09	0.81946236	0.30999228	0.45810944	0.9424859	-0.24346882	0.20439023
1.4830307450623094e-09	0.8058151	0.34219575	0.4611669	0.9862778	-0.024481066	0.13585411
1.4951183532590434e-09	0.7904459	0.36758053	0.46958852	0.96597916	0.2121658	0.11722636
1.5071486068600813e-09	0.7747431	0.3855872	0.48217577	0.88354236	0.43328857	0.14750335
1.5189506927678104e-09	0.7607542	0.3949739	0.4971785	0.7616631	0.5997479	0.21953033
1.530492675705435e-09	0.7498402	0.3959303	0.51288915	0.63320774	0.6959024	0.31872612
1.5423142446818223e-09	0.7424506	0.38897792	0.5285121	0.5204346	0.7261513	0.4345721
1.5545365025034477e-09	0.7392758	0.37457806	0.5426716	0.44154698	0.697303	0.5541815
1.5672155726529117e-09	0.74065113	0.3538204	0.5538764	0.4043469	0.619765	0.6651328
1.580747741416151e-09	0.7466473	0.3278373	0.56084657	0.40698907	0.49995372	0.7587813
1.5951980461051453e-09	0.75691515	0.2992419	0.562031	0.44213396	0.34410894	0.8233205
1.6102716462252779e-09	0.7701484	0.27248847	0.55661666	0.49639708	0.16490568	0.8470037
1.626023692543885e-09	0.78472936	0.25187793	0.5449769	0.55884945	-0.022400293	0.8225375
1.6424033242754101e-09	0.79857045	0.24159127	0.5287558	0.62646556	-0.19214661	0.7471536
1.6592942743207361e-09	0.8093022	0.24428982	0.51086915	0.7053352	-0.30961412	0.6274512
1.6761898378535098e-09	0.8146713	0.2593881	0.49521652	0.7991142	-0.3383723	0.48540434
1.691789549909056e-09	0.8140112	0.28127974	0.4852422	0.8897623	-0.2677417	0.35822895
1.7060928907721806e-09	0.808771	0.30448732	0.48113778	0.95324844	-0.12106217	0.26630667
1.7195391439303443e-09	0.80057126	0.32583812	0.48198962	0.9712582	0.06915901	0.21726772
1.732292846348135e-09	0.79097027	0.3431957	0.48670888	0.93789726	0.2645277	0.2127662
1.7444631928114822e-09	0.78132933	0.35545808	0.49409574	0.8639314	0.4315103	0.24732742
1.7562971629608663e-09	0.77258146	0.36239606	0.50312465	0.7690624	0.55162877	0.3115291
1.7682686822689604e-09	0.7652778	0.36404845	0.5131341	0.6718589	0.6194162	0.39687797
1.7807467426147132e-09	0.76003456	0.3602253	0.52342033	0.5891673	0.6334395	0.4947763
1.7937171933257998e-09	0.75756156	0.35104954	0.53283656	0.5353324	0.5965465	0.59307456
1.8073700852224667e-09	0.75826037	0.33710605	0.5402941	0.5155664	0.5150877	0.6811484
1.822025906225434e-09	0.76233214	0.3194135	0.5446525	0.5283949	0.3942986	0.74882406
1.8376370877201342e-09	0.7694924	0.3003089	0.54473895	0.5666907	0.24375191	0.7838181
1.8539948261957973e-09	0.77871794	0.2831958	0.5400991	0.6199242	0.08067095	0.77651274
1.8709275236500627e-09	0.78845763	0.27153867	0.5313728	0.6810467	-0.07000851	0.723779
1.888438930355178e-09	0.7969939	0.26791012	0.5201391	0.75022125	-0.17799543	0.6306291
1.9061260030102454e-09	0.802514	0.27321354	0.5089376	0.82688713	-0.21051987	0.5150174
1.9218674528655163e-09	0.803998	0.28424534	0.5009665	0.89315706	-0.16097675	0.41415176
1.936473694305257e-09	0.8023207	0.29785606	0.49637777	0.9373949	-0.050855063	0.3397834
1.9502291933483383e-09	0.7983423	0.31166032	0.49501342	0.9482735	0.093572885	0.299092
1.9633064871124475e-09	0.7929627	0.32394966	0.4964081	0.923005	0.24355294	0.29326236
1.975789309979041e-09	0.78705055	0.3336115	0.4999157	0.86927223	0.37403017	0.31806698
1.9880641235423877e-09	0.7811927	0.34023756	0.50497043	0.79943466	0.47166702	0.36699966
2.000636508009948e-09	0.7758266	0.3435325	0.5111729	0.725972	0.5297326	0.43423444
2.0139247660207943e-09	0.7714793	0.34303102	0.51807237	0.6616961	0.5434402	0.5132479
2.0278144518278533e-09	0.7688615	0.33847597	0.5247766	0.61950123	0.51184446	0.59276444
2.042538515288267e-09	0.76844436	0.33007473	0.5304158	0.60485446	0.43889636	0.6625686
2.058291467740845e-09	0.7705191	0.31859675	0.5339962	0.6175075	0.33090279	0.71170413
2.0749731567009427e-09	0.77494514	0.3058156	0.53458333	0.65180296	0.20046432	0.72914237
2.0924067901043168e-09	0.7809926	0.2942493	0.5318079	0.69979703	0.067695364	0.7081819
2.110351324643878e-09	0.7874474	0.28649575	0.5261573	0.75575894	-0.04051485	0.65000814
2.1286760981377924e-09	0.7929585	0.28432864	0.5188878	0.8166615	-0.09648862	0.5652097
2.1453959083442907e-09	0.7961149	0.28754693	0.51236814	0.87026495	-0.084649764	0.48193136
2.1610306801442355e-09	0.7969949	0.29426697	0.507473	0.9086764	-0.017477509	0.41462618
2.175731028244983e-09	0.7959289	0.30267426	0.50460744	0.92335063	0.08504513	0.37252566
2.1895855079798874e-09	0.7934458	0.3112225	0.5037516	0.91136265	0.19909313	0.35844338
2.2029099381302272e-09	0.79007006	0.31892216	0.50463796	0.8765124	0.3053587	0.37010098
2.216009351627818e-09	0.786263	0.32510665	0.5069562	0.826841	0.3899987	0.40310523
2.2293702707783806e-09	0.78238887	0.32933238	0.5104413	0.7715472	0.44490865	0.45273927
2.24353361955203e-09	0.7788313	0.33109918	0.51484084	0.7203067	0.46402258	0.5140051
2.2584332465887446e-09	0.77619326	0.32989016	0.51957315	0.684352	0.44358954	0.5774776
2.2742538457360155e-09	0.77497774	0.32559422	0.52394634	0.6701011	0.38561112	0.6331867
2.291095346145859e-09	0.7755532	0.31862447	0.5271269	0.6788429	0.29684976	0.67041016
2.308911088091545e-09	0.77796304	0.31014493	0.52831906	0.7068761	0.1905583	0.6796092
2.3274243374772527e-09	0.7817482	0.3020426	0.52711064	0.7476849	0.087897986	0.6561791
2.346250530307536e-09	0.7860024	0.29631978	0.5237889	0.7948326	0.014033382	0.6043768
2.3642700882001227e-09	0.78956664	0.29428118	0.5194767	0.84008926	-0.010695755	0.54021084
2.38123659931791e-09	0.79182935	0.2956565	0.5153072	0.8760967	0.014265386	0.48030177
2.3975132770300072e-09	0.7926558	0.2995619	0.5119679	0.8962728	0.07844139	0.43545347
2.4128429188350004e-09	0.7921541	0.30479696	0.50991863	0.8958378	0.16266324	0.4127859
2.4274028740988597e-09	0.79065126	0.31032044	0.50920403	0.8762121	0.24806984	0.41243443
2.4416689940082085e-09	0.7884675	0.3154487	0.5097056	0.842462	0.32151318	0.43148002
2.456041916750373e-09	0.7859055	0.31962994	0.5112777	0.8016676	0.37340575	0.46596566
2.4710877718627183e-09	0.78325456	0.32238573	0.5137684	0.76147467	0.39724523	0.51147914
2.4871038790442504e-09	0.7809219	0.32316265	0.5168961	0.7305617	0.38802475	0.5612811
2.5040372701845374e-09	0.77940536	0.32159674	0.520128	0.7161977	0.34580103	0.6056033
2.5220439230827282e-09	0.77909636	0.31776375	0.5228213	0.7208561	0.27651152	0.6347673
2.5408815411180647e-09	0.7801591	0.312403	0.52427864	0.7422711	0.19384775	0.640381
2.560253643067377e-09	0.78235334	0.30683243	0.52409375	0.774824	0.117320165	0.61985296
2.5794737124338898e-09	0.78503627	0.30257174	0.5223972	0.81130713	0.06797334	0.5792474
2.5977357762041463e-09	0.78744704	0.30055115	0.51986253	0.844102	0.057339415	0.5319149
2.6155834152190992e-09	0.7891824	0.30079636	0.5171178	0.8679952	0.0841327	0.48859486
2.632879315661536e-09	0.7899747	0.3029472	0.514773	0.87722373	0.13909513	0.4590467
2.6492188069192117e-09	0.7898218	0.30621436	0.51325125	0.869961	0.20496947	0.4482229
2.664901972425289e-09	0.78892076	0.30986008	0.5126447	0.84934705	0.2670313	0.4550372
2.680514197328755e-09	0.78748137	0.3133512	0.512924	0.820471	0.31546906	0.4764714
2.696564240894697e-09	0.7857231	0.316207	0.5140264	0.7895351	0.3429512	0.50864375
2.713644041177299e-09	0.7839056	0.31794408	0.5158392	0.76323825	0.3441232	0.54656416
2.7317234353088426e-09	0.78242725	0.31806666	0.5180485	0.7486082	0.31699935	0.58198166
2.750911459064458e-09	0.781672	0.3163894	0.5201808	0.74926186	0.26593095	0.6060442
2.7707767986471317e-09	0.7818901	0.3132676	0.5216467	0.76428694	0.20343085	0.6112394
2.7907009084022738e-09	0.78299177	0.3096223	0.52204925	0.78854007	0.14719468	0.5962339
2.8101695718785052e-09	0.78458905	0.30649596	0.5213915	0.81551677	0.11250623	0.5668127
2.829253482627842e-09	0.786244	0.30456775	0.5199728	0.8396542	0.10658775	0.531856
2.848284156660825e-09	0.78759193	0.30414456	0.51819134	0.8558628	0.12967163	0.5002572
2.8668873394741037e-09	0.78833765	0.3051734	0.5165302	0.859552	0.17368624	0.48043242
2.8845379504869375e-09	0.78840214	0.30716473	0.5153726	0.85044354	0.2237042	0.47604066
2.901624026132595e-09	0.7878938	0.30957752	0.5148463	0.83212644	0.2678198	0.48555362
2.9188383854988656e-09	0.7869525	0.31197888	0.5149752	0.8093197	0.298224	0.50593305
2.9367770437577735e-09	0.785748	0.3139447	0.5157394	0.78745806	0.3090931	0.5331425
2.955923386518628e-09	0.7845201	0.3150223	0.5170341	0.7723107	0.2968612	0.5614303
2.976229328230172e-09	0.78360486	0.31482702	0.51856977	0.7686272	0.26302198	0.5828186
2.9968699175821625e-09	0.78330135	0.31338558	0.5198768	0.7770063	0.21782099	0.5901474
3.0174173812750096e-09	0.7836611	0.3111956	0.5205921	0.79373085	0.17520055	0.58191735
3.03768459271582e-09	0.78451884	0.30893722	0.5205824	0.8136784	0.14717633	0.5617947
3.0578342785639102e-09	0.78560704	0.30719838	0.5199293	0.8319738	0.14060958	0.5362376
3.078202938328948e-09	0.7866411	0.30638072	0.51884824	0.8440516	0.1568755	0.51252866
3.0984090991269696e-09	0.7873392	0.30664638	0.5176809	0.8460371	0.19010918	0.49796486
3.117667304161943e-09	0.7875555	0.30775797	0.5167769	0.837949	0.22762877	0.49597836
3.136338794998764e-09	0.7873279	0.30931702	0.5162959	0.823247	0.25912324	0.505075
3.155260588351943e-09	0.7867464	0.3109732	0.5162943	0.8061281	0.2781154	0.5222722
3.1750873372514734e-09	0.7859402	0.31236094	0.5167804	0.79127985	0.28002203	0.543479
3.196224627877254e-09	0.78511244	0.31308648	0.51766825	0.78337324	0.26318732	0.56290805
3.2180835433031652e-09	0.7845439	0.3128698	0.51869	0.78521353	0.23250662	0.5736314
3.2397435854662217e-09	0.7844205	0.31183004	0.5194955	0.7952573	0.19934803	0.5721798
3.261095014018775e-09	0.7847333	0.31037173	0.51987016	0.80951023	0.17437582	0.5602033
3.282398547796431e-09	0.7853532	0.3089495	0.5197569	0.8237464	0.16456585	0.54220134
3.3040907299632327e-09	0.78609216	0.30796048	0.5192226	0.833948	0.17263356	0.52392185
3.3260592066468364e-09	0.78672063	0.30769348	0.5184579	0.83655	0.19569735	0.51164925
3.347235533319514e-09	0.78704405	0.30815387	0.5177525	0.8309168	0.22380818	0.50936866
3.3676519084093917e-09	0.78702873	0.30908325	0.5172993	0.8199617	0.24730964	0.5162228
3.3882344599910553e-09	0.78672206	0.31020233	0.5171808	0.8073772	0.26042306	0.5294195
3.409741504767761e-09	0.78621227	0.31121436	0.51742905	0.79708934	0.25954878	0.54515195
3.432677434517008e-09	0.7856507	0.3117941	0.51799726	0.7927824	0.244108	0.5583235
3.455873414350479e-09	0.7852628	0.31170514	0.5186745	0.7961123	0.22014396	0.56343913
3.4785539392480063e-09	0.78517824	0.31104448	0.5192089	0.8049089	0.19752619	0.55926144
3.5010407358544852e-09	0.7853916	0.31009024	0.5194544	0.81570935	0.18372041	0.54822594
3.523754024464238e-09	0.78581667	0.30916345	0.5193638	0.8249837	0.18293616	0.53451276
3.546504743237668e-09	0.7863008	0.30857274	0.5189977	0.8294667	0.19495083	0.5233033
3.5683732382089882e-09	0.7866726	0.30847687	0.51852685	0.82783663	0.213764	0.5185842
3.5889801282865497e-09	0.78684545	0.30880123	0.5181224	0.82165676	0.23172006	0.5207239
3.6087635909903105e-09	0.7868205	0.30937505	0.51787746	0.8135531	0.2439382	0.5278154
3.628207315351422e-09	0.7866375	0.31002373	0.51782876	0.8059975	0.24813436	0.5373388
3.6474989358262715e-09	0.78636146	0.31058216	0.51797	0.8009627	0.24410196	0.5465911
3.6666362020594528e-09	0.786072	0.3109214	0.5182521	0.7995069	0.2336577	0.5531952
3.68574179947993e-09	0.78584254	0.31097874	0.5185999	0.801628	0.21991596	0.5557059
3.704802746699691e-09	0.78572685	0.31076032	0.51892847	0.806486	0.20657247	0.55376506
3.723811095708849e-09	0.785747	0.31033784	0.5191645	0.8126915	0.1969669	0.5481649
3.742786148327046e-09	0.7858913	0.30982444	0.51926297	0.8186673	0.19330175	0.5405546
3.761773489686916e-09	0.7861205	0.3093446	0.51921463	0.82296944	0.19619386	0.5329751
3.780779117293059e-09	0.78637826	0.30900654	0.5190445	0.8245726	0.2045694	0.5273692
3.799739882286018e-09	0.7866048	0.30887777	0.51880574	0.8231645	0.21591727	0.52507824
3.818684089608573e-09	0.7867534	0.3089695	0.5185629	0.81926	0.2271192	0.5264756
3.837593276470419e-09	0.7867989	0.30924034	0.5183766	0.8140429	0.23529094	0.5309592
3.856525954082073e-09	0.7867422	0.30961138	0.518289	0.80896896	0.23857394	0.53719455
3.8754625508763864e-09	0.78660786	0.30998522	0.51831686	0.8053627	0.23646644	0.5434782
3.8943453852379215e-09	0.7864376	0.3102704	0.5184478	0.80403584	0.2298972	0.54820484
3.913240240309721e-09	0.78627735	0.3104053	0.5186466	0.80512697	0.22079645	0.5503072
3.9321163546983924e-09	0.786168	0.3103668	0.51886475	0.80817974	0.21160223	0.54942286
3.950986229568652e-09	0.7861348	0.3101744	0.5190529	0.81231564	0.20460577	0.54596037
3.969882885841645e-09	0.78618366	0.30988133	0.5191727	0.81647164	0.20143247	0.54093474
3.988802633944924e-09	0.7863015	0.3095609	0.519204	0.8196228	0.20269093	0.53570443
4.0076617915219645e-09	0.7864583	0.30928868	0.5191492	0.8210196	0.20779997	0.5316264
4.0265243804551184e-09	0.78661907	0.30912107	0.51903075	0.8203987	0.21523589	0.52965057
4.0453944053116576e-09	0.7867496	0.30908686	0.51888406	0.8180173	0.22296146	0.53015345
4.064228749032516e-09	0.78682524	0.30918136	0.5187489	0.8145992	0.22897607	0.532848
4.0830204104909075e-09	0.7868366	0.3093697	0.5186586	0.81110024	0.23188171	0.53690296
4.1018214059038455e-09	0.78678966	0.30959892	0.5186337	0.80841595	0.23117429	0.5412192
4.120618994149696e-09	0.78670317	0.3098101	0.5186782	0.8071684	0.2272723	0.5446979
4.1394020686243725e-09	0.78660405	0.30995286	0.5187794	0.8075607	0.22136012	0.5465247
4.158159955390495e-09	0.78651994	0.30999693	0.5189127	0.80937207	0.21503535	0.5463541
4.176898089188305e-09	0.7864727	0.30993703	0.51904774	0.81206197	0.20988421	0.54435796
4.195671565127597e-09	0.78647417	0.30979192	0.51915663	0.81492984	0.20710513	0.54113555
4.214453053175509e-09	0.7865242	0.30959874	0.5192189	0.8172606	0.20726715	0.5375651
4.23324026252395e-09	0.78661126	0.30940312	0.51922643	0.8185047	0.2101641	0.5345616
4.252026660538789e-09	0.7867162	0.309248	0.51918465	0.81840456	0.21490628	0.53284705
4.270800945298143e-09	0.78681695	0.30916366	0.5191099	0.8170577	0.22018133	0.53277355
4.289557640774093e-09	0.7868943	0.3091616	0.5190248	0.81488025	0.22462602	0.5342547
4.3083272379228004e-09	0.7869357	0.30923355	0.5189529	0.812476	0.22718382	0.5368233
4.3271142128667395e-09	0.78693795	0.3093548	0.5189127	0.8104716	0.22733453	0.53976876
4.345912061028604e-09	0.78690696	0.30949107	0.5189141	0.80934757	0.22519451	0.54232955
4.364672366149761e-09	0.7868563	0.30960667	0.5189568	0.80932385	0.22145411	0.5438863
4.3834082268845475e-09	0.7868026	0.30967405	0.5190305	0.81032425	0.21714665	0.54412115
4.402159368797364e-09	0.7867622	0.3096787	0.51911896	0.81203556	0.21336623	0.5430595
4.420942827620151e-09	0.786747	0.30962142	0.51920366	0.81399655	0.21102105	0.5410398
4.439745424404449e-09	0.78676236	0.3095172	0.5192682	0.81570816	0.21061961	0.5386241
4.4585214969406536e-09	0.7868063	0.30939126	0.519302	0.8167564	0.21214741	0.5364462
4.4772686779857136e-09	0.78686976	0.30927175	0.5193024	0.8169188	0.21509892	0.53503615
4.49603963105953e-09	0.7869404	0.30918285	0.5192749	0.8162042	0.2186521	0.53469676
4.514815186172853e-09	0.7870051	0.3091403	0.5192308	0.8148433	0.22187428	0.5354491
4.533610966437976e-09	0.78705287	0.30914783	0.51918435	0.81321883	0.22397743	0.5370387
4.55241063706875e-09	0.78707755	0.30919743	0.51914954	0.8117616	0.2245021	0.5390129
4.571174387238268e-09	0.7870787	0.30927143	0.51913637	0.81083024	0.2234228	0.54084903
4.5899335511430805e-09	0.7870614	0.30934837	0.5191492	0.81061924	0.22111455	0.5421008
4.608717669726873e-09	0.78703487	0.30940765	0.51918596	0.8111331	0.21822616	0.54249305
4.627519394641617e-09	0.7870093	0.30943403	0.5192394	0.8121978	0.21551374	0.54197943
4.646327595890462e-09	0.7869943	0.30942112	0.5192987	0.81351495	0.21364671	0.5407428
4.6651128239336566e-09	0.7869961	0.3093722	0.5193525	0.81474	0.21304302	0.5391406
4.683877688022486e-09	0.78701675	0.30929872	0.5193917	0.8155748	0.21377315	0.53759664
4.702657500683064e-09	0.7870534	0.3092167	0.51941115	0.8158348	0.2155744	0.53649163
4.721443651657409e-09	0.7871002	0.30914307	0.51941085	0.8154868	0.21792865	0.5360775
4.740273326018299e-09	0.7871492	0.3090914	0.51939505	0.8146522	0.22021365	0.53641665
4.759074662022716e-09	0.78719217	0.3090696	0.51937145	0.8135744	0.22185048	0.53737676
4.777855155500312e-09	0.7872233	0.30907756	0.5193491	0.8125422	0.22247206	0.5386754
4.7966186892649045e-09	0.7872399	0.3091084	0.519336	0.8118123	0.22199152	0.53996545
4.815392710602682e-09	0.7872429	0.30915058	0.519337	0.81154656	0.22059901	0.5409267
4.834184890366999e-09	0.78723615	0.30919075	0.51935387	0.8117817	0.2186985	0.5413386
4.852994187246603e-09	0.78722537	0.3092171	0.5193844	0.8124271	0.21679646	0.5411314
4.871782729815167e-09	0.78721714	0.30922168	0.5194231	0.81329495	0.21537203	0.540396
4.89054158477928e-09	0.78721666	0.3092025	0.5194635	0.8141543	0.21475129	0.53935117
4.909298744044072e-09	0.7872269	0.30916306	0.51949865	0.81479365	0.21503715	0.5382768
4.9280959683749805e-09	0.78724843	0.30911112	0.5195239	0.81506664	0.21610594	0.5374416
4.946918855108788e-09	0.78727883	0.3090569	0.5195368	0.8149242	0.21764278	0.5370433
4.965716600629938e-09	0.78731406	0.30901054	0.51953816	0.8144279	0.21922751	0.5371551
4.984478847748355e-09	0.7873489	0.3089794	0.5195314	0.8137259	0.22045873	0.53771514
5.003226122081111e-09	0.787379	0.30896664	0.5195214	0.8130081	0.2210525	0.53855413
5.022009484950055e-09	0.7874015	0.3089711	0.5195136	0.8124544	0.22090173	0.5394463
5.040798425247222e-09	0.78741497	0.30898768	0.51951236	0.8121943	0.22008936	0.5401641
5.059597038991539e-09	0.78742075	0.30900887	0.5195203	0.81227463	0.21885996	0.5405378
5.078374654671801e-09	0.7874216	0.3090267	0.51953757	0.81265235	0.21754996	0.5404956