# t (s)	mx ()	my ()	mz ()	m.region1x ()	m.region1y ()	m.region1z ()
0	0	1	0	0	1	0
1.023e-12	-0.017046263	0.999791	0.010997671	-0.04450978	0.99889994	0.014764381
2.047e-12	-0.033703044	0.9991757	0.022039479	-0.08825352	0.99564	0.030196691
4.095e-12	-0.06576797	0.9968046	0.044200905	-0.17263341	0.9829853	0.062677056
8.191e-12	-0.124748774	0.9880234	0.0886885	-0.3252255	0.93636656	0.13158487
1.3838668104977775e-11	-0.19451958	0.968859	0.14992087	-0.4929596	0.83946466	0.22675411
1.9528293498422676e-11	-0.2512656	0.9437035	0.21088089	-0.611865	0.7245601	0.31300536
2.532861165216832e-11	-0.29559034	0.9143232	0.27173865	-0.6908266	0.60735244	0.38516417
3.1346517926283015e-11	-0.328013	0.8817907	0.33307576	-0.74131775	0.4959267	0.4420211
3.7645155515912744e-11	-0.3483542	0.8470535	0.3949689	-0.7732164	0.39391413	0.48391834
4.419657548147092e-11	-0.35621163	0.81126946	0.4565917	-0.7939909	0.30246285	0.51217276
5.091737050994824e-11	-0.35175914	0.7755002	0.51671255	-0.80850905	0.22080739	0.5291908
5.776811195249055e-11	-0.33578095	0.7400767	0.5746464	-0.8192315	0.1468456	0.53793776
6.477383131275807e-11	-0.30908883	0.7045321	0.6302932	-0.8269809	0.07851887	0.54094887
7.199214532106306e-11	-0.27224678	0.6678219	0.6837112	-0.8319122	0.014589995	0.53987455
7.947803881473565e-11	-0.22572564	0.6284955	0.7347523	-0.8341977	-0.045373794	0.5354979
8.720934255461474e-11	-0.17065446	0.5850998	0.7825755	-0.8343344	-0.10107439	0.52799463
9.511097630653288e-11	-0.10906254	0.5362684	0.8259864	-0.8331216	-0.15234493	0.51725
1.0321135632698821e-10	-0.04269454	0.4800027	0.86431557	-0.8313091	-0.20024486	0.5028861
1.1150106657742786e-10	0.025964271	0.4146914	0.89653313	-0.829343	-0.24580735	0.48456678
1.1999455330303806e-10	0.09417963	0.33896986	0.9215831	-0.82729405	-0.2901081	0.46198606
1.286786446855697e-10	0.1586858	0.2524329	0.938244	-0.8249604	-0.33372334	0.4349971
1.3759940563261794e-10	0.21658488	0.15504813	0.9453762	-0.821997	-0.3770853	0.40332255
1.4680885461511247e-10	0.26516658	0.047744468	0.941728	-0.8180254	-0.4202641	0.366637
1.559957790949044e-10	0.30113488	-0.06297684	0.9268289	-0.81287116	-0.4614928	0.32628372
1.6535986497012015e-10	0.32524192	-0.1758389	0.9003041	-0.8061126	-0.5013573	0.28168294
1.7492430289303568e-10	0.33871198	-0.28715736	0.8620149	-0.7973008	-0.53961676	0.23307379
1.8447681561889436e-10	0.3443207	-0.39077756	0.8134371	-0.7861865	-0.57522845	0.18216157
1.9390339135044716e-10	0.34649068	-0.48285893	0.75654256	-0.77257735	-0.60779095	0.13038318
2.029801600572784e-10	0.34982294	-0.5600977	0.6945473	-0.7566932	-0.6367654	0.07977132
2.1200077395641848e-10	0.35849127	-0.62440777	0.6271058	-0.7379735	-0.66334176	0.029272536
2.2107997105301873e-10	0.37630832	-0.6753858	0.5545325	-0.71598715	-0.6879759	-0.021414027
2.301694233165242e-10	0.40625927	-0.7111503	0.4783462	-0.69063216	-0.7106101	-0.07189586
2.3952910926837355e-10	0.45179576	-0.72990197	0.39751133	-0.6608193	-0.73181087	-0.12372184
2.487446215150306e-10	0.51173663	-0.72759837	0.31699878	-0.6275619	-0.75044227	-0.17495127
2.5762854428796293e-10	0.5824655	-0.702585	0.24008	-0.59160215	-0.76591283	-0.22507179
2.6639031389665005e-10	0.66152924	-0.65266126	0.16664937	-0.55218595	-0.7781008	-0.27589962
2.7485603397937745e-10	0.74185956	-0.57791185	0.09991297	-0.5102717	-0.78597814	-0.32708433
2.8336847494379846e-10	0.8199804	-0.4750167	0.039143547	-0.4644382	-0.7885645	-0.3814087
2.9167365996381106e-10	0.88612777	-0.34838828	-0.0117875915	-0.416662	-0.7839444	-0.43790603
2.9983971116307707e-10	0.93393874	-0.20166247	-0.051666565	-0.3679013	-0.7699538	-0.49736318
3.0801755623358856e-10	0.95809454	-0.03837896	-0.079551935	-0.3195144	-0.7433152	-0.5609185
3.161053962917019e-10	0.95418847	0.13123658	-0.09381978	-0.27583137	-0.70079046	-0.6270188
3.2381177778344734e-10	0.9234182	0.2918369	-0.09435364	-0.24337609	-0.6418025	-0.6909394
3.315795935115279e-10	0.86741567	0.44432342	-0.08194153	-0.22701912	-0.56163454	-0.75198203
3.395441839399684e-10	0.7886381	0.5833526	-0.056385275	-0.23662312	-0.45819685	-0.8031785
3.474175741535908e-10	0.69630754	0.69818616	-0.019669505	-0.2812314	-0.34067106	-0.8310313
3.554110820197218e-10	0.59583735	0.7890298	0.027405128	-0.3661251	-0.21929348	-0.82295245
3.6357996132512207e-10	0.49429134	0.855003	0.0834731	-0.4870163	-0.112679936	-0.7670421
3.7164172352141047e-10	0.40208676	0.89561844	0.14439079	-0.62113494	-0.041590776	-0.66504353
3.797262777152487e-10	0.32271948	0.9153764	0.20886499	-0.7467633	-0.010223535	-0.52790576
3.8802035270038796e-10	0.2582597	0.9179163	0.27649954	-0.847599	-0.013051159	-0.37021923
3.9645166589848284e-10	0.2119559	0.90613824	0.3449878	-0.9133623	-0.038349625	-0.21276408
4.0505217191881093e-10	0.18478826	0.8826912	0.41300383	-0.94617033	-0.07311916	-0.071959205
4.136432526524327e-10	0.1767877	0.8502429	0.47779018	-0.9552455	-0.107862435	0.03866255
4.222577937347102e-10	0.18604997	0.8101217	0.5385194	-0.95227796	-0.1407798	0.116426736
4.309052033988886e-10	0.21028048	0.7628166	0.5943042	-0.94515485	-0.17539425	0.16415639
4.3962300240264623e-10	0.24697195	0.7079977	0.6444694	-0.9364028	-0.21671332	0.18938279
4.479664000192746e-10	0.2907216	0.6485557	0.68606174	-0.9252739	-0.26375917	0.20149784
4.5598799551523075e-10	0.33803344	0.58473563	0.71953684	-0.91035604	-0.31294724	0.20985585
4.635083581653164e-10	0.38475794	0.51895547	0.74465835	-0.89270943	-0.35761145	0.21888989
4.704011714737123e-10	0.4278287	0.45385277	0.7620366	-0.8750768	-0.3931975	0.2289675
4.768969023696155e-10	0.46731308	0.3887298	0.7732546	-0.85933656	-0.41979322	0.23881523
4.831235264999566e-10	0.5031813	0.32345724	0.7791749	-0.8469117	-0.43854246	0.24640715
4.89179138590009e-10	0.5355049	0.25800323	0.7803287	-0.8384652	-0.4515089	0.24967708
4.951493721619288e-10	0.56443584	0.19235802	0.77701354	-0.83383197	-0.4613057	0.24691917
5.010977334608078e-10	0.5901092	0.12672207	0.7693626	-0.83206016	-0.47068015	0.23709218
5.070685250099765e-10	0.6126729	0.06153761	0.75742435	-0.8315328	-0.48207656	0.22008528
5.130785693965935e-10	0.6323028	-0.0023983219	0.7412638	-0.83028525	-0.4971381	0.19686246
5.189876528419496e-10	0.6489298	-0.06268347	0.72153676	-0.82662773	-0.51588374	0.16996281
5.248005336106194e-10	0.66317374	-0.11863476	0.6986703	-0.81963855	-0.5375516	0.1416883
5.305607540913479e-10	0.6757846	-0.17002709	0.67290837	-0.8091628	-0.56100005	0.11378508
5.363040026230696e-10	0.68748266	-0.21656099	0.6444579	-0.7956636	-0.5849645	0.08746785
5.420668182872806e-10	0.69897807	-0.25790805	0.61347294	-0.7799959	-0.60832447	0.063329965
5.477813151571351e-10	0.7107439	-0.29307508	0.5806906	-0.7634945	-0.62984604	0.041720662
5.534565209053321e-10	0.72332764	-0.32177418	0.54646987	-0.7472129	-0.6490276	0.022028916
5.591051105316544e-10	0.737177	-0.34375829	0.51113397	-0.73188287	-0.6657663	0.0032087385
5.647462780210749e-10	0.75263834	-0.35878795	0.4749529	-0.7177903	-0.6802967	-0.016013505
5.704132743557848e-10	0.7699772	-0.36658037	0.43809968	-0.70471734	-0.6931071	-0.036941588
5.761302821059707e-10	0.7893043	-0.3667183	0.40081483	-0.69202924	-0.7047723	-0.060623292
5.818940943378734e-10	0.81046754	-0.3587446	0.3635445	-0.67881733	-0.71580905	-0.087567545
5.876773706521107e-10	0.83300614	-0.3423612	0.32691497	-0.66411763	-0.72656393	-0.11759662
5.934638121768486e-10	0.856276	-0.31746292	0.29148963	-0.6471173	-0.73717755	-0.15006022
5.9927125343922e-10	0.87957674	-0.2839447	0.2576318	-0.6272685	-0.74759465	-0.18422489
6.051348012998071e-10	0.9020982	-0.2416276	0.22564618	-0.60434884	-0.75756377	-0.21948294
6.110315780234653e-10	0.9226456	-0.1908906	0.19618593	-0.57871467	-0.7665674	-0.25513437
6.169376073411871e-10	0.93996334	-0.13250965	0.16986556	-0.5509898	-0.7740102	-0.29089418
6.228366168396243e-10	0.95287347	-0.067565486	0.14719397	-0.52180284	-0.77928704	-0.32697913
6.286632823510612e-10	0.9603231	0.001927526	0.12872869	-0.4918938	-0.78178424	-0.3636155
6.344629975723283e-10	0.96170914	0.07500493	0.1145376	-0.46122143	-0.7809493	-0.40179944
6.402982964845764e-10	0.9564922	0.15090609	0.10471468	-0.429449	-0.7760293	-0.44257748
6.461472950064986e-10	0.94437784	0.22769158	0.09950419	-0.39665845	-0.7661173	-0.4861726
6.519639771378791e-10	0.9256122	0.3030488	0.09897764	-0.36327276	-0.7502963	-0.5321855
6.577390166422024e-10	0.90081245	0.37525892	0.10299912	-0.3299146	-0.7275658	-0.5800543
6.634925829997278e-10	0.8707557	0.4431658	0.11136346	-0.29758286	-0.6967435	-0.62912464
6.69277947260329e-10	0.836175	0.50614333	0.12392303	-0.26778018	-0.65628546	-0.678737
6.751614379236699e-10	0.7977817	0.5637207	0.1406341	-0.24287558	-0.60426086	-0.7279332
6.811867967548074e-10	0.7565393	0.6151731	0.16144279	-0.22656858	-0.53879887	-0.77481574
6.872096027292669e-10	0.71487606	0.6585667	0.18549035	-0.22381842	-0.4610606	-0.81509036
6.932567105310896e-10	0.67406416	0.69391835	0.21236882	-0.23916455	-0.37212038	-0.84477526
6.993104477708134e-10	0.635553	0.7211928	0.24146758	-0.27649748	-0.27578637	-0.85857683
7.054915742456995e-10	0.5998206	0.7410102	0.2728648	-0.33913556	-0.17627047	-0.85050917
7.117136145611557e-10	0.56846607	0.75326717	0.30561304	-0.42535457	-0.083660044	-0.81483126
7.179800462109993e-10	0.542271	0.75840855	0.33918965	-0.52901894	-0.0074470243	-0.74868554
7.241193203451129e-10	0.5222714	0.7570346	0.37214977	-0.63660014	0.043687433	-0.6563346
7.302877112788014e-10	0.50800633	0.749836	0.40485758	-0.73898077	0.06902895	-0.5420792
7.365795345686021e-10	0.49944523	0.73702395	0.43734908	-0.82720655	0.07032416	-0.41259137
7.429549290695778e-10	0.49671027	0.7188997	0.46894836	-0.8936421	0.05261342	-0.27864882
7.49344180428065e-10	0.4995632	0.69597244	0.4988846	-0.93599063	0.02352763	-0.1512992
7.557862704222937e-10	0.50755626	0.66840166	0.52694964	-0.9574725	-0.010105516	-0.03706905
7.623726514479246e-10	0.5203478	0.63593507	0.5531024	-0.9634059	-0.043854605	0.060637474
7.690125307222392e-10	0.53717357	0.59916294	0.5765534	-0.95962125	-0.07493338	0.13794054
7.756800758141462e-10	0.55718005	0.5585073	0.59687823	-0.9516017	-0.103561044	0.1946922
7.824277402814345e-10	0.57970583	0.5139612	0.61391443	-0.94291514	-0.1321954	0.2331719
7.89295598445262e-10	0.60408115	0.46559927	0.6273992	-0.9349344	-0.16395806	0.25666884
7.962977661299587e-10	0.6295532	0.41376626	0.6369835	-0.92704886	-0.20117569	0.26946685
8.033849423380164e-10	0.65516365	0.35945854	0.6423006	-0.91751045	-0.24375594	0.2763801
8.10597806115295e-10	0.6803638	0.30318245	0.6431511	-0.9045861	-0.28958824	0.28180787
8.176642630788041e-10	0.70371634	0.24804333	0.6395681	-0.8885791	-0.33296537	0.28821015
8.24336945163937e-10	0.72429025	0.19690204	0.63228285	-0.8716734	-0.36906755	0.2957243
8.307414155045568e-10	0.74260247	0.14950359	0.6218824	-0.85574037	-0.39726377	0.30324885
8.368124445552767e-10	0.7587012	0.106821254	0.60912305	-0.8426903	-0.4177561	0.30889785
8.426824053602278e-10	0.7732116	0.068256095	0.5943007	-0.8331787	-0.43268523	0.31106502
8.484545362687188e-10	0.786623	0.033473082	0.57755625	-0.8272354	-0.44443497	0.30837843
8.542096587625515e-10	0.79932845	0.0023852165	0.55895317	-0.82428885	-0.4554254	0.29986525
8.600081561017303e-10	0.8116472	-0.024857612	0.53853947	-0.82320946	-0.46785605	0.28512385
8.658773972549934e-10	0.8238081	-0.047851138	0.51645267	-0.8224549	-0.48333597	0.26450616
8.716882390200145e-10	0.8356963	-0.06572219	0.49347174	-0.8204554	-0.5020936	0.23972501
8.774786110081363e-10	0.84749687	-0.07839775	0.4697759	-0.81604743	-0.5238213	0.21228726
8.832639732147793e-10	0.85928434	-0.085722186	0.4456207	-0.8086834	-0.54756886	0.18365903
8.890692619565051e-10	0.8710808	-0.08755004	0.42122126	-0.7983925	-0.57219577	0.154923
8.948429740990867e-10	0.8826771	-0.08379915	0.39711642	-0.78581744	-0.59630466	0.12707366
9.005948856825506e-10	0.89391553	-0.07453638	0.3735813	-0.7717506	-0.6190422	0.10028771
9.063568309464806e-10	0.90461004	-0.05980815	0.35079852	-0.7569162	-0.6399879	0.07419299
9.121283792645673e-10	0.9144466	-0.039760225	0.32908162	-0.7419413	-0.6589248	0.04822762
9.179204940261051e-10	0.9230787	-0.014585427	0.30869675	-0.727128	-0.6759545	0.021585986
9.237699082988691e-10	0.9301449	0.015594637	0.2898314	-0.71235657	-0.69142604	-0.006680066
9.297077711124088e-10	0.9352139	0.050610974	0.27272528	-0.6971728	-0.7057314	-0.03736832
9.356816990098062e-10	0.9377856	0.08966044	0.25784653	-0.6810711	-0.71904737	-0.07053933
9.41650965671263e-10	0.9374901	0.13176784	0.24553218	-0.6634555	-0.731493	-0.10586921
9.47610272381625e-10	0.93409497	0.17606315	0.23595724	-0.6437742	-0.7430992	-0.14288823
9.535628654538715e-10	0.9274818	0.22168382	0.22922912	-0.62171245	-0.7537357	-0.18102558
9.595469646755695e-10	0.9175877	0.26801726	0.22539437	-0.5971053	-0.7631723	-0.21998721
9.655879185756816e-10	0.90444016	0.31434005	0.22451857	-0.57005537	-0.77100897	-0.2596219
9.716883523392495e-10	0.88823175	0.3597424	0.22664613	-0.540913	-0.7766897	-0.2999662
9.778067646347943e-10	0.8694468	0.40303165	0.2317183	-0.510289	-0.7795353	-0.34112346
9.838971816850398e-10	0.8487735	0.4431368	0.23953307	-0.47876444	-0.7788377	-0.38340044
9.900258412792493e-10	0.82661074	0.47985512	0.24997444	-0.44621742	-0.7737425	-0.42793393
9.961482602446275e-10	0.80378646	0.51239836	0.26273608	-0.4130614	-0.7632308	-0.47492123
1.0022740271850835e-09	0.78095627	0.5404679	0.27755088	-0.37957463	-0.7460599	-0.524586
1.0084001357809355e-09	0.75879943	0.56382936	0.29410276	-0.34648716	-0.7208101	-0.5765875
1.0145338842665005e-09	0.7379072	0.58240724	0.3120871	-0.31509846	-0.6858886	-0.6301394
1.0207069923338782e-09	0.71873164	0.5962528	0.33127293	-0.2874397	-0.6394603	-0.6840787
1.0268790969460717e-09	0.70186704	0.60532737	0.35120228	-0.26682937	-0.5804488	-0.73589534
1.0331765659714199e-09	0.6873957	0.6098402	0.3719555	-0.25717652	-0.5066479	-0.7834504
1.0395761381092525e-09	0.6757713	0.6097422	0.39312413	-0.26404253	-0.41833892	-0.82186455
1.0459273967843988e-09	0.66743743	0.6052371	0.41387165	-0.29220533	-0.32038108	-0.8445177
1.0522036773790927e-09	0.6623524	0.5967449	0.4338058	-0.34401938	-0.21912847	-0.84562963
1.0585560025735786e-09	0.66031057	0.5843465	0.45311308	-0.42059627	-0.120532215	-0.8195413
1.0650812404751385e-09	0.66128445	0.5679359	0.47175187	-0.5194755	-0.033579357	-0.76067495
1.0715556190625309e-09	0.6650683	0.5482932	0.48878878	-0.62778205	0.029334879	-0.67082137
1.0779398695530377e-09	0.67123824	0.5259702	0.50394076	-0.7320406	0.063949876	-0.5570019
1.084358939810308e-09	0.67953545	0.5009063	0.5173291	-0.82274884	0.07214576	-0.42649826
1.090902516807252e-09	0.68977183	0.47302353	0.52889985	-0.89278907	0.058650896	-0.28798223
1.0975680510443374e-09	0.7016355	0.4426166	0.53838474	-0.9383831	0.0305662	-0.15196985
1.104321785457048e-09	0.7147193	0.41021115	0.54551375	-0.9607878	-0.004202783	-0.027865266
1.111196818105101e-09	0.7287315	0.37609795	0.5501311	-0.96519756	-0.039597232	0.07893297
1.1182590211328017e-09	0.7434698	0.34046876	0.55206996	-0.9580912	-0.072428346	0.16568561
1.1253724468136756e-09	0.7583337	0.30462843	0.5511697	-0.94609994	-0.10175756	0.2296199
1.13254092415323e-09	0.7730635	0.26924583	0.547439	-0.93410826	-0.13018227	0.27239296
1.1398238680591278e-09	0.7875738	0.23477182	0.5408775	-0.9241212	-0.16191678	0.29765895
1.1472632836293424e-09	0.8017922	0.20183504	0.53148544	-0.9153406	-0.20060968	0.31026402
1.154879268884504e-09	0.8156481	0.17125933	0.51931876	-0.9049999	-0.24731427	0.31582305
1.1622220226718985e-09	0.8283197	0.14546265	0.5054467	-0.89119023	-0.29635987	0.31929764
1.16943211655561e-09	0.840115	0.12421303	0.4901053	-0.87324715	-0.34383535	0.32382628
1.176167413876137e-09	0.8505634	0.10842729	0.47454274	-0.8537219	-0.38364497	0.3297225
1.1825121409346282e-09	0.8598972	0.097426996	0.45907184	-0.8349078	-0.4148341	0.3359883
1.1885445091129863e-09	0.86829066	0.09062572	0.4438785	-0.8186361	-0.43814862	0.34111258
1.1944045019491811e-09	0.8759525	0.08753364	0.42889133	-0.8058572	-0.45549932	0.34357533
1.2001910301605022e-09	0.8829806	0.08792106	0.41408348	-0.79698676	-0.469045	0.34189925
1.2059785381988081e-09	0.88939303	0.09171623	0.39947122	-0.79184085	-0.48109606	0.33482504
1.2118137395723334e-09	0.8951303	0.09892553	0.38514453	-0.78959703	-0.4938697	0.32154325
1.2175516327142077e-09	0.8999428	0.109206915	0.37164813	-0.7888665	-0.5086557	0.3025579
1.2232685959699833e-09	0.903796	0.122428186	0.35896584	-0.78799933	-0.5263615	0.2785624
1.2290020282915535e-09	0.9065896	0.13845065	0.34718305	-0.7855932	-0.5470093	0.25059226
1.234769159543281e-09	0.90819454	0.15708521	0.3364334	-0.7806964	-0.5699325	0.21984117
1.2405870633927281e-09	0.90847665	0.17811647	0.3268522	-0.7728986	-0.5941136	0.18738346
1.2463772657158327e-09	0.90733415	0.20090735	0.31869888	-0.7624724	-0.6180846	0.15455908
1.2522022824043104e-09	0.9046922	0.22530352	0.31198934	-0.74982864	-0.64116234	0.12153369
1.258079975445908e-09	0.9004863	0.25097623	0.30681497	-0.73554564	-0.6627619	0.08832971
1.2640019946876984e-09	0.8947063	0.2774538	0.3032757	-0.72021514	-0.68250006	0.05477379
1.2698726135010501e-09	0.88751817	0.30384594	0.3014502	-0.70447856	-0.70002	0.020956973
1.2757590707973059e-09	0.8789709	0.3300015	0.3012983	-0.68826276	-0.7156706	-0.014035451
1.2817126172090732e-09	0.86912835	0.3557015	0.30282182	-0.67122537	-0.7297487	-0.05100268
1.2877303453327324e-09	0.8581707	0.38048747	0.30601403	-0.65292144	-0.74237186	-0.09026436
1.2937888381777105e-09	0.84636986	0.40384373	0.31081524	-0.63283944	-0.75354004	-0.1317376
1.2998366394725756e-09	0.83410454	0.42522103	0.31708032	-0.61061996	-0.7631033	-0.17484419
1.305912774601702e-09	0.8215944	0.44446394	0.32471684	-0.5857603	-0.77092856	-0.219454
1.312058351185059e-09	0.8090616	0.46141765	0.3336472	-0.55793	-0.7766967	-0.26544032
1.3182864240249045e-09	0.7967963	0.47584897	0.34375218	-0.5271424	-0.77987176	-0.31257734
1.3245180201914397e-09	0.7852584	0.48740178	0.3547276	-0.4941374	-0.77975416	-0.36015677
1.3307949533035e-09	0.7746462	0.49606058	0.3664482	-0.4592235	-0.7755415	-0.4086562
1.3371463403702774e-09	0.76517165	0.50177455	0.37876913	-0.42284036	-0.7661242	-0.4586852
1.343594940840763e-09	0.757042	0.50448495	0.39152646	-0.38556883	-0.7500108	-0.5108829
1.350162983044291e-09	0.7504461	0.5041379	0.4045432	-0.34824824	-0.7252326	-0.5657221
1.3567713210327914e-09	0.7456089	0.50076085	0.41743106	-0.31279495	-0.6899149	-0.6223157
1.3633465002527456e-09	0.7426107	0.4945583	0.42982608	-0.28177574	-0.6424766	-0.6789613
1.3697876719836315e-09	0.7413976	0.48592547	0.44135723	-0.25853357	-0.58244115	-0.7327614
1.3761140754973582e-09	0.74179304	0.47518766	0.4519227	-0.24644025	-0.50947744	-0.7809445
1.382445225303473e-09	0.7436544	0.46241942	0.46159163	-0.24950774	-0.42293254	-0.8203595
1.3889052944024114e-09	0.7469229	0.44754773	0.47038853	-0.2730451	-0.32315332	-0.8459752
1.3954152024868313e-09	0.7514484	0.43094236	0.47804195	-0.32134125	-0.21631998	-0.85039854
1.4018818435208205e-09	0.75698715	0.4131177	0.4843432	-0.3944995	-0.11236739	-0.82743615
1.4083619958691817e-09	0.76339525	0.39421842	0.48928192	-0.4891483	-0.020599445	-0.7731304
1.4148944612144081e-09	0.770539	0.37442368	0.49281433	-0.597264	0.049714446	-0.6866515
1.421429925391933e-09	0.77819586	0.35419428	0.49486637	-0.7058708	0.09180322	-0.5729838
1.4279399506286954e-09	0.78616655	0.333947	0.49543172	-0.80221575	0.10515458	-0.44140065
1.4344884010937336e-09	0.794382	0.31381565	0.49453068	-0.87816983	0.09439733	-0.3011948
1.4411725627956299e-09	0.8028367	0.29385564	0.492136	-0.92998725	0.06625835	-0.16064645
1.448045014448575e-09	0.8114779	0.27431497	0.48819536	-0.95745486	0.028188482	-0.027855774
1.45510258611667e-09	0.8201847	0.2556584	0.4826975	-0.96394914	-0.012636885	0.089943446
1.4621768703577715e-09	0.8286458	0.23875435	0.47585112	-0.9559312	-0.050147623	0.18606871
1.4692792784554753e-09	0.8367912	0.22392705	0.46779954	-0.940788	-0.08247	0.25981376
1.4764372671146695e-09	0.8445748	0.21145415	0.45868284	-0.92450047	-0.11079952	0.3121058
1.4837010352528725e-09	0.8519683	0.20158625	0.44861937	-0.91082555	-0.13871777	0.345085
1.4911242127670846e-09	0.8589255	0.1946086	0.43773326	-0.9008171	-0.17092438	0.3620182
1.4987491551441045e-09	0.8653576	0.1908525	0.42618963	-0.89272165	-0.21133022	0.36742234
1.5062055033905667e-09	0.87085533	0.19057946	0.41481918	-0.8834308	-0.25824142	0.36671385
1.5133155502606483e-09	0.8752763	0.19342408	0.4041473	-0.8706112	-0.30696914	0.3647133
1.5203483721726722e-09	0.8787699	0.19912222	0.39397806	-0.8533712	-0.35481605	0.3637409
1.5269926385283105e-09	0.8811872	0.20699437	0.38491052	-0.8339649	-0.39611843	0.36428297
1.5333409234897178e-09	0.8826297	0.21659806	0.37688842	-0.8145118	-0.42989483	0.36555853
1.5393995638887694e-09	0.8831667	0.22747083	0.36993623	-0.79706067	-0.4562714	0.3663021
1.5452976873873162e-09	0.88286763	0.23945674	0.3639239	-0.7826564	-0.476909	0.3651482
1.5511341202433954e-09	0.88175356	0.25246668	0.35878536	-0.77184135	-0.49369666	0.36072063
1.5569828939288792e-09	0.879816	0.26642525	0.35450774	-0.76464367	-0.5086394	0.351747
1.5627620434977773e-09	0.8771051	0.2808908	0.35118523	-0.7605861	-0.52334064	0.33763087
1.568482511760631e-09	0.87366986	0.29563507	0.34881347	-0.75847787	-0.539233	0.31832573
1.574214226850508e-09	0.8695227	0.31059963	0.3473693	-0.756913	-0.5572611	0.29402706
1.5799898466619546e-09	0.8646921	0.32563844	0.346861	-0.7545716	-0.5776197	0.26531032
1.5858274015027484e-09	0.85922635	0.34056446	0.34730172	-0.75040764	-0.59989446	0.2329808
1.5917117955898337e-09	0.8532219	0.3551041	0.34869057	-0.7438204	-0.6231765	0.19805653
1.5976032776119751e-09	0.8468262	0.36893857	0.3509901	-0.73471767	-0.64634913	0.16160114
1.6035591230155012e-09	0.8400966	0.38199073	0.35418376	-0.72319454	-0.6687956	0.1238328
1.6095967346021614e-09	0.83314186	0.3940833	0.3582427	-0.7095313	-0.68994445	0.084912755
1.615593531713939e-09	0.8262433	0.4048044	0.36301124	-0.6943798	-0.7090222	0.045654014
1.6215707379865413e-09	0.81951493	0.41408584	0.36840442	-0.6779749	-0.7260146	0.0057648406
1.6276020930419472e-09	0.81300974	0.42193156	0.37439495	-0.6601799	-0.74113196	-0.035500947
1.6337226075432677e-09	0.8068289	0.4282604	0.38092834	-0.64072686	-0.7544513	-0.078649245
1.6399251892356014e-09	0.8011176	0.43295106	0.38789886	-0.61929816	-0.7659028	-0.12380514
1.6461595996213414e-09	0.79604226	0.4359014	0.3951369	-0.5956654	-0.77528095	-0.17059894
1.652412044123178e-09	0.791708	0.43709502	0.40250468	-0.5695399	-0.7823666	-0.21873845
1.6587350317423617e-09	0.78815997	0.43654305	0.40994066	-0.5404716	-0.78686696	-0.26833943
1.6651187783088413e-09	0.7854731	0.43425635	0.41730767	-0.508454	-0.78825235	-0.31902334
1.6714993207873652e-09	0.7837057	0.43032348	0.42440933	-0.47404256	-0.7858887	-0.3700528
1.6779232286966163e-09	0.78285027	0.4248116	0.4311805	-0.4374652	-0.77898216	-0.42173222
1.684426403385064e-09	0.7829028	0.4177796	0.43754023	-0.39918098	-0.7664106	-0.47446227
1.691033940393452e-09	0.7838556	0.40929627	0.44339126	-0.35994586	-0.7466534	-0.528661
1.6977590822988925e-09	0.7856883	0.39945915	0.44862205	-0.32095686	-0.71774465	-0.58456606
1.7045437271165159e-09	0.7883334	0.3885094	0.45307928	-0.28439772	-0.6777083	-0.64141405
1.7113525975152647e-09	0.7916933	0.376705	0.45666042	-0.25309363	-0.6245505	-0.697831
1.7180449135347871e-09	0.7955802	0.36453003	0.45926464	-0.23106213	-0.55795246	-0.75050783
1.7245864526149305e-09	0.79983795	0.3522978	0.46090734	-0.22216468	-0.4783368	-0.79598504
1.7310431570916376e-09	0.80438787	0.3401114	0.46164507	-0.23033766	-0.38648662	-0.830468
1.7375360971895045e-09	0.8092172	0.32794946	0.46150854	-0.26002625	-0.28399813	-0.8489925
1.7441008042721118e-09	0.8142674	0.31595343	0.46049744	-0.31487584	-0.1763101	-0.84492946
1.7505518697425822e-09	0.81931007	0.30465347	0.45868456	-0.39266917	-0.07531783	-0.8133505
1.7569790886062842e-09	0.8243375	0.29405785	0.45611864	-0.48886403	0.010804064	-0.752178
1.7634476866749182e-09	0.82933176	0.28423086	0.45283008	-0.5954763	0.07465184	-0.66205865
1.7699637557150915e-09	0.8342331	0.2753381	0.4488719	-0.7014405	0.11145563	-0.5476853
1.7764907608576897e-09	0.838953	0.26758456	0.44433907	-0.79535216	0.12116786	-0.41755834
1.7830413577188474e-09	0.84344494	0.26108697	0.43930846	-0.86954767	0.108206786	-0.28060916
1.7896975994223928e-09	0.84770477	0.25590485	0.43380344	-0.9208396	0.07878783	-0.14399707
1.7965354876484912e-09	0.8517083	0.25215292	0.4278487	-0.94909364	0.039377093	-0.014074854
1.8033584779439182e-09	0.8552753	0.25004786	0.4217247	-0.9568798	-0.0023864564	0.09976372
1.810228120296649e-09	0.85838604	0.24960048	0.41549957	-0.950201	-0.04200365	0.19566588
1.817169316914463e-09	0.86099327	0.25083575	0.40927625	-0.9350929	-0.07695202	0.2726684
1.8241883783299928e-09	0.86303926	0.2537557	0.40317893	-0.9170656	-0.10681587	0.33065057
1.8313225765641475e-09	0.8644726	0.25835198	0.39731005	-0.90036696	-0.13341911	0.37046537
1.8386408124724417e-09	0.8652346	0.26463524	0.3917587	-0.887465	-0.16042817	0.3936434
1.8460714945610258e-09	0.865253	0.27245843	0.3867262	-0.87877876	-0.19181544	0.402467
1.853572422332856e-09	0.86449224	0.281608	0.38236946	-0.8721626	-0.23055547	0.40106025
1.8608665033097708e-09	0.8630115	0.29147083	0.378913	-0.8644584	-0.2751645	0.3944806
1.8678320399590824e-09	0.8609407	0.30154318	0.37638712	-0.8534787	-0.32174757	0.3868796
1.874719158640876e-09	0.85830283	0.31190044	0.3746697	-0.83838606	-0.3681012	0.38006172
1.8814165570780055e-09	0.8552268	0.3221359	0.37376028	-0.8204954	-0.4102604	0.37469992
1.887907536000466e-09	0.8518258	0.33201247	0.37359577	-0.80183107	-0.44629827	0.37034464
1.894108133349967e-09	0.84825516	0.34123778	0.37408626	-0.7845729	-0.47549224	0.3660438
1.9001348865678082e-09	0.8445487	0.34986296	0.37514913	-0.7697835	-0.49917695	0.36053512
1.9060872386676805e-09	0.84072644	0.35792413	0.3767378	-0.7580287	-0.5189515	0.35252628
1.9120439199967095e-09	0.83680946	0.36542258	0.37882853	-0.7494292	-0.53651524	0.34077504
1.9179152266643466e-09	0.83292735	0.37215906	0.38133842	-0.74374294	-0.55312157	0.3246925
1.923725237177353e-09	0.82913107	0.37810367	0.38421565	-0.7400182	-0.5700905	0.30401564
1.929548945334057e-09	0.8254353	0.38327408	0.38744256	-0.73705316	-0.5883821	0.2786572
1.9354224180541332e-09	0.8218805	0.38763478	0.39099035	-0.73366076	-0.60830766	0.2489094
1.941362749983404e-09	0.8185201	0.39113116	0.39481902	-0.7288254	-0.62962645	0.21534841
1.947387280698972e-09	0.81540823	0.39371037	0.39888525	-0.7218294	-0.65175354	0.17862834
1.953424114504255e-09	0.8126372	0.3953052	0.4030789	-0.7124446	-0.6736331	0.13993286
1.959535054305296e-09	0.81022733	0.39591256	0.40737718	-0.70057005	-0.6947499	0.09945545
1.965740633189046e-09	0.8082192	0.39550987	0.41172665	-0.6862927	-0.7145765	0.057404157
1.9719027232210987e-09	0.80668616	0.3941256	0.41596207	-0.6701626	-0.73231936	0.014861587
1.9780542884390044e-09	0.8056263	0.3918109	0.42004198	-0.65230125	-0.74794966	-0.028408363
1.984273770644866e-09	0.8050357	0.3885823	0.4239542	-0.632507	-0.7615943	-0.07307544
1.9905892814655162e-09	0.8049238	0.38446283	0.42764834	-0.61053115	-0.77321166	-0.11948457
1.996990763129554e-09	0.8052955	0.3795098	0.43105066	-0.5861305	-0.7826231	-0.16764052
2.0033903234028227e-09	0.8061302	0.3738743	0.43405786	-0.55937505	-0.78949374	-0.21682541
2.0098250740618882e-09	0.8074034	0.36762673	0.43664157	-0.5299314	-0.7935603	-0.26715228
2.016347962734816e-09	0.8090979	0.36081728	0.438775	-0.49746886	-0.7943473	-0.31882423
2.0228795271119743e-09	0.81115645	0.35364425	0.44039443	-0.462515	-0.7911928	-0.37101042
2.0294199645635807e-09	0.81353086	0.34623632	0.44148043	-0.42548323	-0.78333825	-0.42358944
2.036021763020246e-09	0.8161926	0.33866498	0.442025	-0.3867196	-0.7696967	-0.4769852
2.0427189089565886e-09	0.81910866	0.3310267	0.4420133	-0.3469397	-0.7487798	-0.5315617
2.0495372428951305e-09	0.8222419	0.3234371	0.44143036	-0.30732	-0.7186176	-0.5875621
2.056411648058219e-09	0.8255083	0.3161188	0.44028318	-0.27017084	-0.6773011	-0.6441423
2.063356783734489e-09	0.8288565	0.3092047	0.43858904	-0.23820026	-0.62242085	-0.70037174
2.070234954085387e-09	0.83216125	0.3029597	0.43642554	-0.21572892	-0.55330247	-0.752968
2.0769552078026896e-09	0.83532476	0.29754624	0.43389612	-0.2071401	-0.47076783	-0.79790163
2.083531341028079e-09	0.83830905	0.29299575	0.43107793	-0.2164412	-0.37653884	-0.8309245
2.090068679244029e-09	0.84112185	0.2892747	0.42799836	-0.2475539	-0.27302173	-0.84718484
2.09670416048393e-09	0.8437775	0.28637078	0.42465237	-0.30424055	-0.16447163	-0.840462
2.103261066870607e-09	0.8461659	0.28440198	0.42119327	-0.38434482	-0.06298999	-0.8057287
2.109757479395657e-09	0.84826773	0.28335303	0.41768137	-0.4820114	0.021973848	-0.7417314
2.1162839276758946e-09	0.85008526	0.2832047	0.4141329	-0.5891461	0.08374804	-0.64979345
2.1228727747036028e-09	0.85159624	0.28396064	0.41059396	-0.695169	0.118340336	-0.5346655
2.1294872269728677e-09	0.85276496	0.28560326	0.40714827	-0.7890131	0.12608117	-0.40471402
2.1361020320831893e-09	0.853569	0.28808397	0.40386963	-0.8629516	0.11162778	-0.2691904
2.142774720426791e-09	0.8539995	0.29137158	0.40078855	-0.91411334	0.081389174	-0.13516907
2.1496130095072137e-09	0.85403854	0.29547694	0.39792147	-0.94288033	0.04146905	-0.007709583
2.156474040370567e-09	0.85367024	0.30024648	0.3953899	-0.9515969	-0.0011605074	0.105146386
2.1633792134422497e-09	0.852897	0.30559242	0.39323455	-0.9457038	-0.041855816	0.2008274
2.1703613681050893e-09	0.8517234	0.31142998	0.3914913	-0.93096733	-0.077967055	0.2784387
2.1774163047499666e-09	0.85016567	0.31763473	0.3902023	-0.91279554	-0.10864365	0.3376422
2.1845603972860335e-09	0.8482463	0.324089	0.38939822	-0.89554405	-0.13514459	0.3790121
2.191858798446243e-09	0.8459796	0.33071005	0.3891037	-0.8819396	-0.16065522	0.4038252
2.1993114623159856e-09	0.8434067	0.33734444	0.38934645	-0.8728506	-0.18927498	0.413884
2.2068229694200135e-09	0.840619	0.3437485	0.3901274	-0.866836	-0.22436029	0.41252336
2.2142560740085783e-09	0.83774203	0.34966552	0.39139885	-0.8607463	-0.26646182	0.40449512
2.22123798742033e-09	0.8349993	0.35473037	0.3930074	-0.8521058	-0.31115916	0.3946623