# t (s)	mx ()	my ()	mz ()	m.region1x ()	m.region1y ()	m.region1z ()
0	0	1	0	0	1	0
1.023e-12	-0.02433518	0.9995736	0.015728204	-0.03227673	0.9993252	0.017529381
2.047e-12	-0.04807498	0.99831915	0.031548493	-0.06384739	0.9973377	0.03522777
4.095e-12	-0.093612485	0.9934882	0.06335932	-0.12457307	0.98967075	0.07094248
8.191e-12	-0.17648663	0.9756493	0.12727197	-0.23530105	0.9613806	0.14273064
1.5226243177088478e-11	-0.29215702	0.92551863	0.2360267	-0.38924572	0.88284534	0.26264694
2.226160288940234e-11	-0.37464017	0.8596347	0.34086537	-0.49861658	0.78246695	0.37256113
2.933902951910799e-11	-0.42717755	0.7853319	0.44023573	-0.57063097	0.67329025	0.46935934
3.6647889056541705e-11	-0.45406964	0.7055547	0.5350448	-0.6146384	0.56053644	0.55373204
4.433446879223747e-11	-0.45802328	0.6215976	0.6253198	-0.63768035	0.44635785	0.6260414
5.234287027210191e-11	-0.44169426	0.53542227	0.70858985	-0.64522064	0.33351877	0.6850907
6.057115967284184e-11	-0.40911925	0.4480665	0.78241044	-0.6423739	0.22358957	0.7302592
6.905781460146485e-11	-0.3643089	0.35803783	0.8458858	-0.6332522	0.11533475	0.7619205
7.77724798665749e-11	-0.31151855	0.26407778	0.89744294	-0.6209011	0.008189608	0.7797699
8.675964693760635e-11	-0.25444835	0.16413826	0.93581903	-0.60727894	-0.09932716	0.78336686
9.606855293190477e-11	-0.19645831	0.056566738	0.9593157	-0.5932125	-0.20853148	0.77176243
1.0573350407952423e-10	-0.14045404	-0.059224665	0.96579164	-0.57816327	-0.32017693	0.7436677
1.1561474557905606e-10	-0.08906531	-0.18036616	0.95327157	-0.56021845	-0.43244317	0.6986301
1.2458641230051992e-10	-0.047034338	-0.29049307	0.92517793	-0.53881127	-0.5321184	0.64419013
1.3314018557981888e-10	-0.009113066	-0.3931101	0.8838837	-0.5107806	-0.6242205	0.5811577
1.416096559017031e-10	0.029363686	-0.48978928	0.82960415	-0.472498	-0.7113911	0.5090313
1.5017887000678808e-10	0.073125675	-0.57965225	0.76195824	-0.4196908	-0.7938351	0.42729503
1.5855712463372074e-10	0.12482421	-0.6564433	0.6845281	-0.35101825	-0.86649823	0.3399124
1.667473004955721e-10	0.18777159	-0.71708083	0.59937644	-0.26458532	-0.9266623	0.24832109
1.7481633948369302e-10	0.26475647	-0.758282	0.5079695	-0.15838796	-0.9709141	0.15302375
1.8268048432973865e-10	0.35546356	-0.7754078	0.41368592	-0.033488896	-0.9937737	0.056220617
1.9046158543325648e-10	0.4596246	-0.76401675	0.31780082	0.11052526	-0.9891177	-0.042301558
1.9822439836251855e-10	0.57411814	-0.71839887	0.22263925	0.27147073	-0.94803005	-0.14179353
2.0586597453196673e-10	0.6901638	-0.6348487	0.13313287	0.43983907	-0.8614015	-0.23856796
2.1327201341633946e-10	0.7960923	-0.5145625	0.054376815	0.6005396	-0.72367287	-0.3277038
2.2062349232292855e-10	0.8833121	-0.35795727	-0.0117752	0.73962945	-0.5276045	-0.40627575
2.2803054758293767e-10	0.9410891	-0.1687195	-0.062097907	0.83458006	-0.27055314	-0.4675854
2.354050830565129e-10	0.95867324	0.039731167	-0.092287466	0.8564743	0.031111548	-0.500627
2.4269145218858994e-10	0.93187153	0.25020957	-0.10019839	0.78572947	0.34361348	-0.495248
2.499356198047466e-10	0.86307037	0.44766957	-0.08569811	0.6213979	0.6252884	-0.44508237
2.571913793563979e-10	0.75972104	0.6192361	-0.04982137	0.38531643	0.8356154	-0.35009223
2.644329784809187e-10	0.6344564	0.75439215	0.00469725	0.12041693	0.94922316	-0.21998504
2.717546950278207e-10	0.49964553	0.8501282	0.07500656	-0.13217224	0.9683251	-0.06885379
2.79255336200186e-10	0.3669712	0.9068103	0.15825447	-0.34337538	0.9119524	0.088381164
2.87017084152904e-10	0.24705376	0.9271767	0.25136447	-0.49992707	0.8057323	0.23894788
2.9512354688200074e-10	0.14853461	0.9156794	0.35119095	-0.60239804	0.67301875	0.37433672
3.033383256855752e-10	0.079794005	0.87918776	0.45069468	-0.65789515	0.53555113	0.48631686
3.1178078114793793e-10	0.0409921	0.82373536	0.54766256	-0.680759	0.40079734	0.5765423
3.2060360163610847e-10	0.031066148	0.7524652	0.6403869	-0.6818752	0.26986825	0.6473216
3.29954728955559e-10	0.04840185	0.6660502	0.7266357	-0.66879267	0.14108133	0.69992775
3.394435225531716e-10	0.08770662	0.5688025	0.7995245	-0.6479912	0.01819856	0.7328377
3.4923412610865856e-10	0.14301339	0.4590836	0.857574	-0.62315166	-0.10325725	0.74728465
3.593193168422578e-10	0.20753932	0.33686584	0.89764625	-0.5962249	-0.22501265	0.7426347
3.6928947180564133e-10	0.27207476	0.20872563	0.9164638	-0.56846935	-0.34326795	0.7190913
3.793120803351027e-10	0.33295602	0.0761179	0.91396767	-0.5378457	-0.46014932	0.6767696
3.89538715909349e-10	0.38881752	-0.057734776	0.88948166	-0.50044155	-0.5763697	0.6148555
3.9965442996653253e-10	0.43869114	-0.18213189	0.8445735	-0.45249316	-0.6862549	0.53604656
4.094737938522313e-10	0.48516333	-0.28856787	0.7832628	-0.38993213	-0.78500473	0.44443375
4.193954208427069e-10	0.53468806	-0.3751055	0.7063874	-0.30473554	-0.87231266	0.3389258
4.2912461453411006e-10	0.5900172	-0.43315318	0.6198838	-0.19444254	-0.93938893	0.22539838
4.3839587067380966e-10	0.65136015	-0.45821446	0.5309504	-0.061310675	-0.97805786	0.11056835
4.4750640297266986e-10	0.7195094	-0.4492771	0.44139493	0.09674193	-0.98168576	-0.005870189
4.564706842703389e-10	0.7907344	-0.40436304	0.35546678	0.27505258	-0.93932354	-0.12084851
4.654699591156478e-10	0.85971457	-0.32154495	0.27603096	0.46679735	-0.8361378	-0.23253757
4.742663292876725e-10	0.9157982	-0.20558205	0.20962921	0.64777493	-0.66255957	-0.33206734
4.830569525365281e-10	0.95103884	-0.060826644	0.15872832	0.7924785	-0.4094872	-0.41284126
4.918497523309577e-10	0.9574426	0.10264574	0.12687266	0.86192334	-0.08476507	-0.46178648
5.006260114874667e-10	0.93102294	0.27080348	0.11637359	0.8187549	0.27632558	-0.4630286
5.091840373902942e-10	0.875154	0.4254918	0.12714617	0.6550628	0.60530037	-0.4059141
5.179062317268444e-10	0.79448414	0.5611758	0.15816638	0.39240602	0.851584	-0.28686798
5.268671167716682e-10	0.6978564	0.6685395	0.20800312	0.08820564	0.97139925	-0.116206
5.355619324582093e-10	0.60279095	0.7381474	0.2696111	-0.17410605	0.9665271	0.069389835
5.439420153522624e-10	0.5196925	0.7739232	0.3370727	-0.36231416	0.88495594	0.24252342
5.524422130876203e-10	0.45083955	0.78235245	0.40948153	-0.4850205	0.7638209	0.39678365
5.610346185819033e-10	0.40090072	0.7670525	0.4829616	-0.55307317	0.629645	0.52477396
5.696823025008353e-10	0.3716464	0.73218143	0.5539002	-0.58287525	0.49701548	0.6257753
5.778587317873625e-10	0.36229753	0.6848513	0.61571866	-0.58912027	0.37822297	0.69875175
5.860159950423706e-10	0.36840647	0.62639105	0.6704024	-0.5832397	0.2661667	0.7530114
5.944509458120136e-10	0.38778833	0.5562787	0.7180257	-0.57053316	0.15556933	0.79231656
6.030203868125222e-10	0.41745034	0.47691137	0.7558113	-0.5546906	0.04685193	0.8166076
6.117470478903458e-10	0.45424378	0.3896867	0.7822914	-0.5379277	-0.061696496	0.82621634
6.207984066977646e-10	0.49586478	0.29492113	0.7962603	-0.52104527	-0.17310342	0.8205452
6.299983591165365e-10	0.53888404	0.19735682	0.7961063	-0.5043598	-0.28556412	0.7985991
6.394798577299222e-10	0.58209085	0.09960817	0.78110015	-0.4862815	-0.40036657	0.75898415
6.490912266302234e-10	0.62411726	0.008226236	0.75148153	-0.4642235	-0.514582	0.7015328
6.589012344171531e-10	0.6657572	-0.071790904	0.7080445	-0.43351418	-0.6271528	0.62576234
6.689178866385486e-10	0.70828444	-0.13431957	0.65251225	-0.38788623	-0.7352571	0.53204113
6.788858272731079e-10	0.7517897	-0.1724639	0.58931476	-0.3217119	-0.8321393	0.42450172
6.88947158203675e-10	0.79698354	-0.18265168	0.52139556	-0.22748518	-0.9133902	0.30416876
6.988187112719661e-10	0.84086317	-0.16258849	0.454907	-0.103254244	-0.968794	0.17747924
7.085837743586014e-10	0.88021487	-0.11308634	0.39352444	0.05277411	-0.98856676	0.046761796
7.182396966470528e-10	0.91022456	-0.03731021	0.34115314	0.23686226	-0.9589398	-0.08445558
7.277765093224848e-10	0.92602235	0.058788873	0.30106968	0.4376071	-0.8637021	-0.21170542
7.37237639536704e-10	0.9240796	0.16757198	0.27542895	0.6338097	-0.686071	-0.3291087
7.465624070959633e-10	0.9033329	0.27895653	0.2654943	0.7885083	-0.41855514	-0.42565286
7.558513167713619e-10	0.8653384	0.38483495	0.27105877	0.8560256	-0.06924208	-0.48675516
7.645168965962875e-10	0.8178381	0.47185755	0.28936607	0.7999718	0.29350334	-0.4942023
7.728827563749086e-10	0.7655817	0.54035515	0.31752095	0.6242984	0.616798	-0.44246572
7.814354601293839e-10	0.71084696	0.5918877	0.3548324	0.3512812	0.85503715	-0.3278303
7.904095973565615e-10	0.65737903	0.62493527	0.40053207	0.033663925	0.9661537	-0.15672691
7.990745360751517e-10	0.6138439	0.63715416	0.4482244	-0.23512682	0.94958663	0.02969211
8.076615989304951e-10	0.5812299	0.63193023	0.49632227	-0.4300439	0.85380495	0.20844959
8.164194500966788e-10	0.55998236	0.6111119	0.5438057	-0.55411637	0.7174734	0.3675455
8.251918404453277e-10	0.5507668	0.5770106	0.5876335	-0.6192025	0.5707795	0.49693996
8.340384950004499e-10	0.5525661	0.5316085	0.626214	-0.64481914	0.42679197	0.5976414
8.426024389497029e-10	0.56320345	0.47932234	0.6567946	-0.6465425	0.2952578	0.6699314
8.510831199257706e-10	0.5804287	0.4215453	0.6795115	-0.63575333	0.17225641	0.7204648
8.59830709727384e-10	0.6031528	0.35792032	0.694353	-0.61793107	0.051110107	0.75332737
8.6864255302993e-10	0.62925965	0.29213518	0.70011723	-0.59685576	-0.06700992	0.7684394
8.777283954594993e-10	0.65795547	0.22532293	0.6964145	-0.57374454	-0.18623532	0.7661667
8.870511895320502e-10	0.6880845	0.16099158	0.68288887	-0.5488358	-0.3066842	0.7455546
8.965646459761038e-10	0.7188136	0.10313749	0.6598938	-0.5208081	-0.42754772	0.7058236
9.063786600498454e-10	0.75011873	0.05518481	0.62798154	-0.48604012	-0.5489451	0.64562637
9.161833878639314e-10	0.78073007	0.022309462	0.5898361	-0.4407535	-0.66469735	0.5670714
9.26178809256152e-10	0.81073904	0.0067835962	0.54702723	-0.3778393	-0.77350175	0.46982968
9.362763106409007e-10	0.8387308	0.011056401	0.5026448	-0.2906317	-0.8687524	0.3565684
9.462987285090655e-10	0.86241925	0.035255674	0.46046013	-0.17473187	-0.94126	0.23237239
9.563329580618072e-10	0.8797321	0.07788533	0.42299828	-0.02568026	-0.98135626	0.09984893
9.663089112977807e-10	0.8882199	0.13531303	0.39305162	0.15484259	-0.9747711	-0.036121134
9.76174274604955e-10	0.88626677	0.20223038	0.37256923	0.357717	-0.9048382	-0.17017306
9.85779900894244e-10	0.87382907	0.27172977	0.36254048	0.56098866	-0.7570308	-0.29421777
9.949194316933093e-10	0.85296977	0.33680254	0.36244753	0.7306092	-0.5292357	-0.39752758
1.0039827403030423e-09	0.82529396	0.39591086	0.37114328	0.83498913	-0.21888621	-0.4725673
1.012831227931122e-09	0.7939437	0.4450054	0.387235	0.83201367	0.1406034	-0.50228244
1.021190122880752e-09	0.7628714	0.48140383	0.4082094	0.7091224	0.4812102	-0.47514883
1.0294423507347306e-09	0.73312306	0.50665253	0.43312645	0.48342338	0.7564466	-0.3883553
1.0381719314523402e-09	0.7048882	0.5213806	0.4624879	0.18359344	0.92940044	-0.23923033
1.0469701849870053e-09	0.6816368	0.5240658	0.49350938	-0.110281795	0.9693636	-0.053208068
1.0557025923707711e-09	0.6649135	0.51554984	0.52405393	-0.34113738	0.90576583	0.13734964
1.0643632954462324e-09	0.655054	0.4973541	0.55260944	-0.49408075	0.7851962	0.30956274
1.0728537002312973e-09	0.6517691	0.47150302	0.577675	-0.5797216	0.64564776	0.45115486
1.081340782106099e-09	0.65425175	0.43924126	0.5988186	-0.61951387	0.5043068	0.5634721
1.0899075775356068e-09	0.6617707	0.401775	0.61539686	-0.6301211	0.36772445	0.64952016
1.0980587956465795e-09	0.67270744	0.36309785	0.6262104	-0.6240798	0.24484631	0.709258
1.1061945173175196e-09	0.6864279	0.3230793	0.6318954	-0.6095051	0.12803987	0.7502467
1.1145810815574568e-09	0.70266056	0.28197026	0.63233924	-0.5900247	0.012032161	0.7751554
1.1229999645673906e-09	0.7203319	0.24252887	0.62740064	-0.5684747	-0.101481	0.78381026
1.1316399157379404e-09	0.739234	0.2056942	0.6171117	-0.54540116	-0.21599762	0.77643394
1.1405432593489167e-09	0.7589346	0.17335598	0.60163546	-0.52041996	-0.33235058	0.752024
1.1495587338022267e-09	0.7785747	0.14806092	0.58184826	-0.49237156	-0.44811705	0.71024716
1.1587354392285133e-09	0.7976925	0.1313947	0.55863076	-0.45814732	-0.5626332	0.65060276
1.167988803518549e-09	0.8154412	0.12482208	0.5334495	-0.4138292	-0.67260295	0.5739002
1.1773485783488203e-09	0.83106315	0.12901628	0.5076794	-0.35405177	-0.77504915	0.48090717
1.1869373628057783e-09	0.84371567	0.1443054	0.48256993	-0.27172652	-0.8661765	0.3717662
1.1965426789440802e-09	0.85202336	0.16965997	0.46027812	-0.16276489	-0.9368146	0.25115845
1.2061342697701975e-09	0.8551234	0.20311925	0.44223318	-0.024086025	-0.9775721	0.12270403
1.2156749202947375e-09	0.85255367	0.24197908	0.42950594	0.14349504	-0.9763985	-0.009419954
1.2251678987074285e-09	0.8443849	0.28331232	0.42266726	0.3339246	-0.9185778	-0.14101301
1.2345990018798264e-09	0.8312607	0.32409388	0.42186198	0.53201556	-0.78783476	-0.2663225
1.2439406474493205e-09	0.81437194	0.361531	0.4267756	0.7101367	-0.57127243	-0.37667766
1.2529863634110087e-09	0.79565173	0.3928432	0.43644682	0.826664	-0.27559417	-0.45791376
1.2618921261520944e-09	0.7763679	0.41738132	0.44995117	0.8436043	0.07830015	-0.49640024
1.270359938247675e-09	0.75852406	0.43400365	0.46562487	0.74056953	0.42590603	-0.47843
1.278686969037751e-09	0.7425279	0.44352677	0.4828599	0.5298069	0.7160927	-0.39977175
1.2874476484399246e-09	0.72832286	0.44617963	0.5019593	0.23740882	0.909093	-0.2570236
1.2963834765987748e-09	0.71736157	0.44144103	0.5214022	-0.062471922	0.9683342	-0.07089329
1.3050561118369875e-09	0.71054447	0.43031463	0.53925383	-0.29889748	0.9178741	0.119500965
1.3137690242060462e-09	0.7075727	0.41356575	0.55531263	-0.46128413	0.8034191	0.29646406
1.3223534913589985e-09	0.70826536	0.39264268	0.5685964	-0.5542178	0.6644113	0.44411233
1.3307633424097221e-09	0.712075	0.36898524	0.57864946	-0.59754926	0.5239227	0.55976033
1.3392853944039244e-09	0.71862805	0.34298715	0.58548856	-0.61018926	0.3864357	0.6494186
1.3475116157596737e-09	0.7270305	0.3170893	0.5887091	-0.60463136	0.26051587	0.7129217
1.3556685980108485e-09	0.73689294	0.2917214	0.5885923	-0.58962375	0.14149171	0.7565064
1.3640333738792901e-09	0.7481079	0.26712206	0.5851641	-0.5692763	0.023852527	0.7834053
1.3724534436646704e-09	0.76005715	0.24486679	0.57859045	-0.5465371	-0.09159489	0.79373413
1.38105166970333e-09	0.7724843	0.22573978	0.56905663	-0.5222757	-0.2075046	0.7877664
1.3899492696469961e-09	0.78511274	0.2106911	0.5567683	-0.49601966	-0.3257874	0.7644545
1.3989239785467844e-09	0.79713154	0.20112328	0.542597	-0.46697015	-0.4430198	0.72357434
1.4081191334844906e-09	0.8081895	0.19762267	0.52707547	-0.4317738	-0.55969363	0.6640449
1.417434875220147e-09	0.8175713	0.20068352	0.511245	-0.38645792	-0.67206734	0.5863905
1.4268224097962555e-09	0.82465804	0.21018457	0.49613196	-0.32592523	-0.7759507	0.49196237
1.4364246181819044e-09	0.8289852	0.22580022	0.4824676	-0.2429537	-0.86751044	0.38082397
1.4462031359823407e-09	0.8300178	0.24660173	0.4712491	-0.1312449	-0.93826735	0.25557578
1.4559512711517909e-09	0.8275425	0.2706732	0.463416	0.010914736	-0.97625476	0.122288115
1.4656580367624172e-09	0.82176507	0.29617268	0.45933318	0.18261701	-0.968599	-0.014570377
1.475423851931635e-09	0.81307924	0.32154018	0.4590928	0.3786217	-0.89838994	-0.1513392
1.4851248078678661e-09	0.8023133	0.3447639	0.46255085	0.5788426	-0.7481584	-0.2794415
1.4942644900960457e-09	0.7910168	0.3635552	0.46883819	0.74362564	-0.5199728	-0.38369247
1.5030090810652924e-09	0.7799101	0.37785465	0.47715548	0.8420632	-0.2231789	-0.4558768
1.5117022618624455e-09	0.7692578	0.38793838	0.48713422	0.8429155	0.12502772	-0.48501733
1.5201812314262688e-09	0.75981313	0.3935002	0.49796236	0.7264543	0.46714383	-0.4574868
1.528570894626585e-09	0.7518529	0.39476192	0.5091861	0.5065873	0.74617094	-0.36882165
1.5369494686137082e-09	0.74564075	0.3919244	0.5203497	0.22899789	0.9174159	-0.22641483
1.5454919019204485e-09	0.7413488	0.38513353	0.5311357	-0.050418183	0.9690311	-0.047031775
1.5540926355024225e-09	0.73922646	0.37482852	0.5408727	-0.27876014	0.92001736	0.14150964
1.562686947145976e-09	0.73928005	0.36170784	0.549036	-0.43523586	0.8099267	0.31577623
1.5713023820833133e-09	0.7413616	0.346472	0.55530345	-0.5264646	0.6731037	0.46403223
1.579672531252753e-09	0.74509746	0.3304374	0.5593317	-0.56828713	0.5351589	0.5794344
1.588099042994784e-09	0.75028145	0.31384593	0.56121993	-0.5799812	0.40036076	0.6686971
1.5962404036444277e-09	0.7563537	0.29811034	0.5609679	-0.5739647	0.27623227	0.73236686
1.60430104437542e-09	0.76310414	0.28347754	0.5587857	-0.558766	0.1586397	0.7763947
1.6125332514897403e-09	0.77045816	0.27012625	0.55473447	-0.5385179	0.04251955	0.8039944
1.6208368320170955e-09	0.7780435	0.25885004	0.5490263	-0.5160724	-0.07197531	0.8154551
1.6292761957624271e-09	0.7856169	0.2501209	0.54187834	-0.49254295	-0.18664712	0.81102973
1.6379856452357715e-09	0.7929691	0.24437076	0.53348356	-0.4676081	-0.3036022	0.789857
1.6468180488905263e-09	0.7996242	0.24213818	0.5243834	-0.4404826	-0.42042336	0.7513804
1.6558256224880548e-09	0.80526954	0.24362248	0.5150098	-0.40844187	-0.53651464	0.69483495
1.6649908800009073e-09	0.8095468	0.24883972	0.50590956	-0.3675504	-0.64934325	0.6200726
1.67423313663553e-09	0.8121357	0.25746578	0.4976917	-0.31306043	-0.75452626	0.528381
1.6836683579210986e-09	0.8128509	0.26910573	0.49075884	-0.23823382	-0.84842616	0.419927
1.693312442931927e-09	0.8115454	0.28309557	0.48557466	-0.13626437	-0.9237448	0.29643884
1.7029992154683444e-09	0.8082857	0.29826868	0.48255897	-0.0039001037	-0.9691713	0.16316245
1.7126696179950546e-09	0.80335903	0.31348938	0.48184258	0.15881369	-0.97198176	0.02511501
1.722459815542411e-09	0.79708385	0.32795498	0.48339835	0.34921217	-0.91552234	-0.11459525
1.7322097711898087e-09	0.79005414	0.34052786	0.48702615	0.5491965	-0.7816614	-0.24697852
1.7416064345806077e-09	0.7830484	0.35025457	0.49217963	0.72416216	-0.5643268	-0.3589226
1.7504972394821765e-09	0.7766347	0.35688904	0.49821126	0.8363387	-0.27616867	-0.43828315
1.7592191079728655e-09	0.77088106	0.36074695	0.50486684	0.85540545	0.06570503	-0.47543877
1.7677529605993517e-09	0.76602274	0.3618941	0.51174057	0.75889176	0.41217357	-0.4573561
1.7761244927477443e-09	0.7621931	0.36051708	0.51850075	0.5566445	0.7031454	-0.37880102
1.7844299825319437e-09	0.75945973	0.35683027	0.5249117	0.29011667	0.8929819	-0.2459979
1.7927055087504278e-09	0.75789374	0.35109526	0.53071666	0.01723824	0.96588475	-0.07720709
1.8012682224817483e-09	0.75752974	0.3433553	0.5358391	-0.22138025	0.9368325	0.11025051
1.8097524476658957e-09	0.7583937	0.33431953	0.5398069	-0.3901064	0.8399764	0.28632435
1.8183118611642682e-09	0.7603956	0.32432625	0.5425337	-0.49370205	0.709247	0.44018656
1.8267857580961448e-09	0.76334184	0.31407717	0.54388463	-0.54500306	0.5705062	0.5639447
1.8352020469945297e-09	0.76703405	0.3040461	0.5438822	-0.56195104	0.434892	0.6593488
1.8434449300034343e-09	0.7711954	0.29481724	0.54262793	-0.55851924	0.3077188	0.72905135
1.85155300191046e-09	0.7756208	0.28670618	0.5402837	-0.5442957	0.18798587	0.7776275
1.8597640451502393e-09	0.7802399	0.27980834	0.53693247	-0.52433836	0.07082706	0.80893326
1.8680995232652944e-09	0.7848683	0.27444175	0.53271544	-0.5016466	-0.04535198	0.82386243
1.876521215441238e-09	0.78928083	0.27090004	0.5278504	-0.4779258	-0.1609989	0.8225972
1.8851813957313385e-09	0.7933419	0.26934862	0.5224817	-0.45308167	-0.27859643	0.804597
1.894053724615779e-09	0.7968105	0.26997012	0.51689404	-0.4262305	-0.39742514	0.7688173
1.903059964835706e-09	0.79944795	0.2727785	0.51144075	-0.39525458	-0.51522183	0.7148236
1.912269107541031e-09	0.801095	0.27767432	0.50639707	-0.35605705	-0.63063365	0.64181775
1.9215501091801434e-09	0.8016081	0.28430945	0.50213283	-0.30406448	-0.73862106	0.5512352
1.9310107710787075e-09	0.8009443	0.2923471	0.4988582	-0.23257512	-0.8355366	0.4432948
1.9407019780472733e-09	0.7991045	0.30133405	0.49678773	-0.13428229	-0.9144685	0.31926516
1.9505046387985547e-09	0.79622215	0.310569	0.49609184	-0.004607257	-0.9640777	0.18372616
1.9603258151911772e-09	0.7925559	0.31934828	0.49678615	0.15693834	-0.9707021	0.04233173
1.9702622991319324e-09	0.78836584	0.32718748	0.4987918	0.34745008	-0.9170857	-0.100852475
1.98016124822284e-09	0.78404385	0.3335037	0.50189716	0.5489282	-0.78445053	-0.23643687
1.9894727677665746e-09	0.78012633	0.33780155	0.505597	0.72219837	-0.57260007	-0.34826285
1.998340523189233e-09	0.7767353	0.34027097	0.50959384	0.83626485	-0.289382	-0.42847335
2.006998541367652e-09	0.7738838	0.34110472	0.51372635	0.8603787	0.046390597	-0.467081
2.0154737329036494e-09	0.77162313	0.3404222	0.5177936	0.7725929	0.38956282	-0.45200264
2.0238010696533112e-09	0.7699797	0.33836454	0.52162945	0.58009326	0.6826719	-0.37766597
2.032047395844289e-09	0.76897275	0.3350806	0.52510494	0.32164043	0.87938243	-0.24964923
2.040131409386503e-09	0.76862603	0.3308229	0.52805305	0.05642897	0.9618829	-0.087607585
2.0483718012064295e-09	0.7689377	0.32565397	0.5304628	-0.17795174	0.946453	0.0920633
2.056764248436544e-09	0.76991713	0.31981295	0.53219867	-0.35374972	0.8603291	0.26843986
2.0651170464462794e-09	0.771487	0.31372842	0.5331456	-0.46413535	0.7378979	0.42303148
2.0736346212184113e-09	0.77359754	0.3075632	0.53329027	-0.52316034	0.60016966	0.55284023
2.08203533458418e-09	0.77606285	0.3018194	0.5326443	-0.5446753	0.4646524	0.65309554
2.0903065865346897e-09	0.77873516	0.29675186	0.53130215	-0.5437526	0.33624187	0.727389
2.098401407208636e-09	0.7814609	0.29256812	0.5293961	-0.53076327	0.21582398	0.77956814
2.106542067557977e-09	0.7841886	0.28930062	0.5269966	-0.5115053	0.09884003	0.81396556
2.1148411555985003e-09	0.7868323	0.287061	0.5241833	-0.48911402	-0.01759986	0.83205503
2.123182821749294e-09	0.78923166	0.28598878	0.5211289	-0.46576425	-0.13289028	0.8339526
2.1317227215030135e-09	0.79131013	0.28612533	0.51792765	-0.4416198	-0.24967758	0.81947637
2.1405541678015688e-09	0.7929589	0.28752294	0.5147105	-0.4157502	-0.36899182	0.78726417
2.149498889750223e-09	0.79403377	0.29011217	0.5117197	-0.38663194	-0.48735318	0.7369918
2.1586444763579246e-09	0.79446864	0.29377982	0.5090996	-0.35045448	-0.60387343	0.6677322
2.1678620839548685e-09	0.79422307	0.29825833	0.50703996	-0.30287308	-0.71376616	0.5806922
2.1772419252137973e-09	0.7933095	0.30331033	0.50564104	-0.23754105	-0.8135887	0.47612932
2.1868629288230147e-09	0.7917688	0.3086617	0.5049913	-0.14702417	-0.8973224	0.35479403
2.196657827207461e-09	0.789713	0.31392464	0.5051496	-0.025499005	-0.95448625	0.22025234
2.206500235139492e-09	0.78733206	0.3186876	0.5060895	0.12853864	-0.97146344	0.078389525
2.216436942971486e-09	0.78480864	0.32267752	0.5077275	0.31295905	-0.9317363	-0.066097334
2.226415646998185e-09	0.78235376	0.32564986	0.50992125	0.5142373	-0.8155584	-0.20543543
2.235810605741772e-09	0.7802692	0.32739526	0.51233184	0.69398415	-0.62028587	-0.32248577
2.2448278218802326e-09	0.7785729	0.3280822	0.51481307	0.8225475	-0.34864995	-0.41027993
2.2535460230805372e-09	0.7772645	0.32784417	0.51723975	0.8662128	-0.020642735	-0.45776537
2.2620762862966313e-09	0.77631575	0.3267923	0.5195308	0.80074185	0.32480195	-0.45344532
2.2703113821764943e-09	0.7757184	0.32505772	0.52157277	0.6306626	0.6266488	-0.39172158
2.2786285891045995e-09	0.7754474	0.3226593	0.523382	0.38174164	0.84638745	-0.2731272
2.2866729481784917e-09	0.7755226	0.3198229	0.52481693	0.11802457	0.95124686	-0.118234806
2.2947578634132057e-09	0.77594185	0.31659886	0.52588576	-0.120885685	0.9562139	0.056203667
2.3030980093394645e-09	0.7767216	0.31305534	0.5265509	-0.3096471	0.8848463	0.23404855
2.311387649818311e-09	0.77780527	0.30950105	0.5267508	-0.4329415	0.7705235	0.39297956
2.319774512600813e-09	0.77915263	0.30605745	0.5264902	-0.5022496	0.63724065	0.52774763
2.3282107212187345e-09	0.78068656	0.30291885	0.525789	-0.53147763	0.5007926	0.6353814
2.336570040835753e-09	0.78230226	0.30027512	0.5247115	-0.5348644	0.3697345	0.71642506
2.344701090639737e-09	0.783887	0.2982575	0.5233627	-0.5239735	0.2474842	0.7737202
2.3528165757353316e-09	0.7854076	0.29686335	0.5217953	-0.5057654	0.12977177	0.8122839
2.361111633081489e-09	0.78682756	0.29612154	0.5200491	-0.48374933	0.012502276	0.8343488
2.3694285634740146e-09	0.7880496	0.29608002	0.5182419	-0.46056238	-0.10318133	0.8400069
2.3778967427732584e-09	0.7890296	0.296733	0.5164366	-0.43675226	-0.21970692	0.829423
2.38664067178435e-09	0.78971624	0.29807675	0.51470315	-0.41161993	-0.33870637	0.80145955
2.395573861348175e-09	0.7900468	0.30004513	0.51315886	-0.3836964	-0.45810112	0.7552153
2.40469786429017e-09	0.78998995	0.30253208	0.5118965	-0.34974796	-0.57604593	0.68995273
2.413905891212038e-09	0.7895467	0.30535665	0.51100457	-0.30556723	-0.68823814	0.6065072
2.4232512514011863e-09	0.7887466	0.3083549	0.5105272	-0.24519883	-0.79111904	0.5053504
2.432832853166842e-09	0.7876344	0.31136462	0.51049316	-0.16122533	-0.8794316	0.38689673
2.442638310768336e-09	0.78629225	0.31417862	0.51091254	-0.046829436	-0.94363594	0.2537216
2.452533081677321e-09	0.78484917	0.31657162	0.51174676	0.10070793	-0.970196	0.11155283
2.4625035111508624e-09	0.78343105	0.31839815	0.51292247	0.2798078	-0.9429444	-0.034120437
2.472543617896946e-09	0.7821555	0.31956902	0.51434314	0.47989735	-0.8421223	-0.17634329
2.4820099316064713e-09	0.7811723	0.32004446	0.51579905	0.6645276	-0.66280305	-0.29782817
2.491135359313765e-09	0.7804626	0.31995285	0.51722115	0.80544543	-0.40422037	-0.3922154
2.499890701408525e-09	0.78000104	0.31940234	0.51853347	0.8671526	-0.0859742	-0.44785035
2.508506712625048e-09	0.7797343	0.31846207	0.5197216	0.82320946	0.26101992	-0.45381787
2.5167155226573287e-09	0.77963185	0.3172318	0.5207188	0.67375314	0.57121503	-0.4034241
2.5248959312782576e-09	0.7796712	0.31571478	0.52154815	0.44218546	0.80697507	-0.29748175
2.532938979762577e-09	0.7798578	0.31398964	0.5221722	0.18069896	0.93561786	-0.15006307
2.5409174531573496e-09	0.7802001	0.31212404	0.52257645	-0.06269077	0.96183544	0.019276986
2.5490919640072367e-09	0.7807127	0.3101516	0.5227494	-0.26160824	0.9079079	0.19535495
2.557342651431116e-09	0.7813775	0.30820668	0.5226709	-0.3993465	0.8031622	0.35879883
2.5656143788338613e-09	0.7821582	0.30640745	0.52234703	-0.48025286	0.67513365	0.4986994
2.5740619118663835e-09	0.7830288	0.30481932	0.5217888	-0.51855534	0.5386789	0.6138264
2.5825021559397317e-09	0.78392434	0.30355987	0.5210397	-0.5273717	0.40521562	0.7021577
2.59066606918898e-09	0.784769	0.30270416	0.5201778	-0.51925373	0.2812017	0.76502794
2.598751828861302e-09	0.7855437	0.30223632	0.5192381	-0.50250876	0.1628622	0.8081033
2.6069537938653522e-09	0.7862287	0.30215555	0.5182475	-0.48136124	0.046091612	0.83432233
2.615237079717878e-09	0.7867846	0.30246356	0.5172595	-0.45850188	-0.06974838	0.84425426
2.6236248090523705e-09	0.7871818	0.3031408	0.51632166	-0.4350991	-0.18572225	0.83808357
2.632256134110095e-09	0.78739786	0.30416632	0.5154697	-0.41076273	-0.30385935	0.8150203
2.64115539369839e-09	0.7874077	0.3054958	0.51475406	-0.38409755	-0.42380273	0.77368194
2.650199697411145e-09	0.7872022	0.3070351	0.5142299	-0.3526699	-0.5422967	0.7137242
2.6593622538589565e-09	0.78679323	0.3086811	0.5139291	-0.31236553	-0.65639174	0.6352629
2.668648968843099e-09	0.7862092	0.31032708	0.5138671	-0.2577243	-0.76233685	0.5389098
2.6781485918105665e-09	0.7854885	0.31187782	0.51404685	-0.1816999	-0.8554771	0.42503196
2.687902205227566e-09	0.78468573	0.31322932	0.5144599	-0.0768426	-0.9276677	0.2952132
2.6977737798236614e-09	0.78388494	0.31426924	0.5150694	0.060744207	-0.96612144	0.15475371
2.7077278111604836e-09	0.78316575	0.31493574	0.5158212	0.23108047	-0.95554835	0.009125514
2.7177693277611926e-09	0.78259593	0.31521	0.5166531	0.42682	-0.8768746	-0.13531074
2.7274072565857152e-09	0.7822352	0.31512505	0.51745886	0.61827075	-0.719349	-0.26356566
2.7365691370072036e-09	0.78206766	0.3147773	0.51818275	0.7734388	-0.48387015	-0.3658478
2.7454193448474916e-09	0.7820455	0.31424698	0.5188098	0.8603597	-0.18041891	-0.4333714
2.7541183487903918e-09	0.78211683	0.31357986	0.51933736	0.84799933	0.16434398	-0.4544273
2.7623935542549847e-09	0.78223294	0.31283003	0.519748	0.7274689	0.48776892	-0.42006367
2.770503617249161e-09	0.7823743	0.3119926	0.5200577	0.51844895	0.74640024	-0.3305004
2.7786150138405685e-09	0.7825479	0.3110649	0.5202669	0.26046413	0.9078135	-0.1931456
2.786554552022605e-09	0.7827644	0.31009978	0.52036387	0.010363188	0.9623962	-0.029637912
2.7946107625547765e-09	0.78304297	0.3091121	0.5203442	-0.20206338	0.93081367	0.14474575
2.802877462008615e-09	0.78338856	0.30815095	0.5201989	-0.3588335	0.8386853	0.31396595
2.8110911012682503e-09	0.7837773	0.3073069	0.5199365	-0.4550568	0.71681345	0.46063763
2.8194432490835283e-09	0.7841962	0.30661148	0.5195664	-0.5048486	0.5827428	0.5830298
2.827891369204311e-09	0.78461856	0.30611184	0.51911074	-0.52143174	0.4479426	0.6795896
2.836123919918167e-09	0.78500426	0.3058433	0.518616	-0.5175205	0.32127517	0.74985975
2.8442111824721988e-09	0.7853373	0.3057962	0.5181094	-0.5029281	0.20156151	0.7987864
2.852347276313435e-09	0.7856083	0.30595982	0.51760674	-0.48292953	0.08472882	0.8301532
2.860628903400064e-09	0.7858029	0.30632573	0.51712924	-0.460415	-0.031791255	0.8452358
2.868960116634777e-09	0.7859051	0.3068676	0.5167081	-0.43728355	-0.14752351	0.8441501
2.877492112557935e-09	0.7859064	0.30756295	0.5163597	-0.41350502	-0.2648881	0.8265708
2.886315844537441e-09	0.78579783	0.30838048	0.5161046	-0.38794184	-0.38470036	0.79107356
2.8952979117811255e-09	0.78558075	0.3092564	0.5159656	-0.35866144	-0.5038455	0.7371029
2.9044338882635724e-09	0.7852668	0.3101297	0.5159522	-0.32188538	-0.61998	0.6643165
2.9136699104501212e-09	0.78488	0.3109331	0.5160638	-0.2727434	-0.729001	0.5735334
2.9230915945210883e-09	0.78444827	0.31161457	0.5162925	-0.2045996	-0.8269341	0.46503213
2.932775662650661e-09	0.7840085	0.3121242	0.51662415	-0.10979143	-0.90699565	0.3396783
2.94263507950306e-09	0.7836124	0.31241566	0.5170295	0.017143944	-0.9576143	0.20159554
2.9525696208740026e-09	0.7833122	0.31247172	0.51746875	0.17728327	-0.9641689	0.05674645
2.962600540656091e-09	0.78314745	0.3123079	0.51790285	0.36642107	-0.9087602	-0.089188926
2.972467887273893e-09	0.783139	0.31197724	0.5182846	0.5636934	-0.77492744	-0.22477052
2.9817088395928504e-09	0.78326184	0.31157237	0.5185771	0.73192966	-0.5643603	-0.33516073