# t (s)	mx ()	my ()	mz ()	m.region1x ()	m.region1y ()	m.region1z ()
0	0	1	0	0	1	0
1.023e-12	-0.02433908	0.99957335	0.015731769	-0.026667962	0.9995012	0.01691747
2.047e-12	-0.048082635	0.99831855	0.03155555	-0.052686468	0.998035	0.033915363
4.095e-12	-0.09362718	0.99348605	0.063373074	-0.10259047	0.992395	0.068024136
8.191e-12	-0.17651351	0.9756417	0.12729785	-0.19333513	0.97163504	0.13618621
1.5447902885380484e-11	-0.2952945	0.9236126	0.23944545	-0.32310826	0.9115915	0.254163
2.2642314999272214e-11	-0.37826088	0.85574615	0.34643263	-0.41394398	0.834228	0.36428323
2.996114381042753e-11	-0.43054017	0.77854854	0.4486829	-0.47256875	0.74740654	0.4669409
3.749285502336778e-11	-0.4556941	0.696218	0.54550236	-0.5040704	0.6560695	0.5616336
4.5288075890764034e-11	-0.45714745	0.6111726	0.6358594	-0.51319295	0.56300557	0.6477432
5.3351306533788315e-11	-0.438564	0.52457124	0.7183081	-0.5045395	0.46960706	0.72441894
6.164883882032963e-11	-0.4040995	0.4365573	0.7912004	-0.48271745	0.37625453	0.7907226
7.016302842359092e-11	-0.3580867	0.34613347	0.8531929	-0.4520823	0.28221926	0.8460142
7.890765010790964e-11	-0.30461353	0.2515478	0.90311384	-0.41643652	0.18603405	0.8897535
8.793245577207627e-11	-0.24731067	0.15073061	0.9396797	-0.37893412	0.08585547	0.9212097
9.728532827646886e-11	-0.18949327	0.042133357	0.9611249	-0.3422253	-0.019827286	0.939122
1.069951264670269e-10	-0.13399173	-0.07462141	0.9652654	-0.30834326	-0.13173468	0.94173753
1.1672657008310714e-10	-0.084155954	-0.19406568	0.9506614	-0.27917153	-0.24550451	0.92784387
1.256246110616757e-10	-0.042944994	-0.30310002	0.9209493	-0.2556969	-0.34983674	0.90062463
1.341538713880655e-10	-0.005262097	-0.40494686	0.8781434	-0.23401463	-0.44883552	0.86165005
1.4262951869308832e-10	0.033530977	-0.50090605	0.82230854	-0.2103547	-0.5448332	0.8107403
1.511604528251783e-10	0.07786919	-0.58922786	0.75358254	-0.18068963	-0.6374394	0.74774
1.5953511102530754e-10	0.13077301	-0.6644838	0.67500556	-0.14166021	-0.7224634	0.6750877
1.6769419733036007e-10	0.19505857	-0.7229836	0.58922374	-0.089983076	-0.79718506	0.5948144
1.757329166102947e-10	0.27350986	-0.7616599	0.4974622	-0.022037374	-0.85961545	0.50752395
1.8358109338428279e-10	0.36573756	-0.7758735	0.40295932	0.06360401	-0.90542364	0.4155988
1.91357737850845e-10	0.47125742	-0.7610022	0.30703872	0.16892701	-0.9303156	0.3194292
1.991138518464192e-10	0.5864509	-0.7113339	0.21225367	0.2938344	-0.92767787	0.22039135
2.0671742985328586e-10	0.7017367	-0.6238638	0.12390936	0.43220833	-0.8905169	0.12277391
2.141083807571206e-10	0.8061042	-0.49967334	0.046443686	0.575078	-0.8140327	0.03051139
2.2146287724888412e-10	0.89074755	-0.33931598	-0.018162243	0.714871	-0.69258475	-0.054836284
2.2887644893858574e-10	0.94472635	-0.14715958	-0.06650781	0.8389299	-0.52215385	-0.1295731
2.3624165669005054e-10	0.95768106	0.06226348	-0.09433355	0.9286826	-0.3089135	-0.18722467
2.4351890773928763e-10	0.9262739	0.27195832	-0.099808216	0.96895194	-0.066559695	-0.22266576
2.507643517285418e-10	0.85342187	0.46729505	-0.08293484	0.9507619	0.18752173	-0.23238246
2.5801489162372343e-10	0.74723965	0.6353255	-0.044930093	0.87260824	0.43164882	-0.21414927
2.652603151599961e-10	0.62043524	0.7664556	0.011415758	0.74323815	0.64312804	-0.16825497
2.725975970028906e-10	0.48529962	0.8580884	0.083272934	0.577694	0.80745506	-0.09680265
2.8012274219765466e-10	0.35346156	0.9108242	0.16776463	0.39483318	0.91643053	-0.0033186083
2.879201023951581e-10	0.23535156	0.9276125	0.2618295	0.2146011	0.9688219	0.10732064
2.9603771154556813e-10	0.13978048	0.9131179	0.36186898	0.055222403	0.9699846	0.22892272
3.042705475366121e-10	0.07418069	0.8743615	0.46125746	-0.06744936	0.93169457	0.3515238
3.1274888873101266e-10	0.038461044	0.81706935	0.5579454	-0.15152568	0.8663742	0.47142342
3.2162454449853416e-10	0.031513453	0.74411696	0.6501816	-0.19852354	0.78240067	0.5862862
3.3103924775043207e-10	0.05162326	0.65599895	0.7355943	-0.21146809	0.6843777	0.69398403
3.408251011877332e-10	0.09438214	0.5544883	0.80877113	-0.19544055	0.5768655	0.78938484
3.5090547344090567e-10	0.15291391	0.440058	0.86571944	-0.15843455	0.46091527	0.86945814
3.6096208301130664e-10	0.21777236	0.31681025	0.9024051	-0.11043176	0.33913228	0.9304403
3.7092760792004187e-10	0.28186023	0.18782869	0.91787434	-0.05977141	0.21163495	0.97158825
3.8097936990652e-10	0.34195685	0.05465226	0.9119543	-0.011555165	0.076443054	0.9928409
3.9124052820323753e-10	0.39692682	-0.07883689	0.8839479	0.030755537	-0.06648031	0.99276614
4.0127596071964535e-10	0.4457267	-0.20037381	0.836346	0.06427043	-0.20767	0.97096384
4.1108941120971466e-10	0.4921595	-0.3039163	0.77255607	0.091318674	-0.34283754	0.9289776
4.210066964825168e-10	0.542372	-0.3865459	0.69368863	0.11740053	-0.47178715	0.8666034
4.306297167038318e-10	0.59827757	-0.43942738	0.606808	0.14774752	-0.584869	0.78839535
4.3986915589748084e-10	0.6606219	-0.45948017	0.5175723	0.1881313	-0.6777389	0.69886404
4.489757685798169e-10	0.72959185	-0.44513053	0.42811197	0.2446244	-0.7493151	0.59911054
4.5792328422174884e-10	0.80069953	-0.3946482	0.34308845	0.32049176	-0.7945787	0.49266025
4.668797087716158e-10	0.86813873	-0.3067452	0.26547146	0.41821355	-0.807901	0.38093287
4.756585024119991e-10	0.92155224	-0.18640308	0.20125361	0.53287035	-0.781888	0.270186
4.844696456348218e-10	0.9530183	-0.037994355	0.15288037	0.6595339	-0.7088029	0.16246447
4.932714016404672e-10	0.95473206	0.12707038	0.12408155	0.78487074	-0.58276296	0.06399323
5.020199238925859e-10	0.9237679	0.293932	0.11682245	0.89067197	-0.4040302	-0.01821192
5.108564133466764e-10	0.8618958	0.45058334	0.13135692	0.95837593	-0.17691293	-0.07817332
5.198087295426888e-10	0.77599984	0.5843153	0.16677281	0.96892357	0.08251447	-0.10843245
5.287619953566907e-10	0.6785788	0.6847155	0.2195846	0.91242594	0.34369314	-0.103284724
5.378126722347019e-10	0.58118784	0.74953836	0.28601354	0.7931317	0.57808584	-0.061204817
5.46982645734009e-10	0.49473554	0.77959085	0.36149558	0.6295343	0.7592736	0.015240115
5.563064045143553e-10	0.42716092	0.77845263	0.44148448	0.44935	0.87280935	0.119318135
5.658990243234509e-10	0.3827606	0.7503402	0.52231264	0.27963525	0.9184458	0.24268189
5.758515414311495e-10	0.36345863	0.69867647	0.6001903	0.14211285	0.9050746	0.37607932
5.860227134503667e-10	0.36843118	0.6275769	0.66972506	0.050858427	0.8475857	0.5079104
5.964048723667682e-10	0.39353728	0.54015803	0.7271451	0.0063372245	0.76055455	0.6305852
6.072238698038665e-10	0.43413115	0.4369266	0.76991075	0.0020830699	0.6511535	0.7410026
6.186692236790628e-10	0.48541862	0.31880733	0.79429305	0.030196663	0.52103895	0.8354694
6.307977866811416e-10	0.5420867	0.19024442	0.7957651	0.080657616	0.36986777	0.9082855
6.430054404894092e-10	0.59723806	0.06609336	0.7724756	0.13868806	0.20593184	0.9513438
6.547984426589653e-10	0.647972	-0.039326496	0.72856236	0.19202982	0.03996354	0.9626816
6.666293665764333e-10	0.6980138	-0.121334106	0.66710615	0.23844837	-0.1278262	0.9434409
6.782875721888751e-10	0.74856555	-0.1706219	0.5944769	0.2783052	-0.28618196	0.89494205
6.892749495081533e-10	0.797766	-0.18256862	0.5204464	0.3157076	-0.42061403	0.8241731
7.000025059995604e-10	0.8451082	-0.15867496	0.44843987	0.3592322	-0.5299033	0.7345859
7.107677571174026e-10	0.8870375	-0.09914898	0.382048	0.4170722	-0.60964596	0.62846804
7.212080126251943e-10	0.9158827	-0.010818971	0.32840276	0.49147475	-0.6502496	0.5150207
7.313760761141985e-10	0.92662346	0.09717654	0.29048398	0.5817459	-0.6470932	0.4001679
7.415035217308981e-10	0.9162233	0.21630712	0.2696673	0.6841817	-0.59480155	0.2878363
7.516452639808235e-10	0.8841471	0.33550972	0.26711714	0.7883051	-0.4883033	0.1846211
7.618219130471394e-10	0.8337187	0.4436432	0.28255585	0.87788546	-0.32709834	0.098358594
7.718697226356307e-10	0.7727883	0.53034157	0.31345177	0.9330626	-0.12269302	0.038112246
7.818493831527966e-10	0.7095119	0.59161127	0.35630488	0.9393452	0.1073545	0.009509358
7.91997725806692e-10	0.6503526	0.62694514	0.40828446	0.8884647	0.34291345	0.016616117
8.022852679986329e-10	0.6020949	0.6362758	0.46522704	0.7832998	0.5536265	0.061282434
8.128795684704547e-10	0.5686786	0.62123275	0.52385354	0.6386265	0.7150591	0.1416454
8.238259884382225e-10	0.5526453	0.58374596	0.58009726	0.48094884	0.8089479	0.25090292
8.351221419142887e-10	0.5542078	0.52651954	0.6296169	0.3405424	0.8313763	0.37763414
8.470384975532789e-10	0.57182413	0.451101	0.6690686	0.23830643	0.7906146	0.51175636
8.593879937320218e-10	0.6019315	0.36269316	0.6935291	0.18705487	0.7013839	0.63851076
8.724108550862132e-10	0.64087754	0.26560426	0.69979817	0.18355978	0.575283	0.7494235
8.863507148409415e-10	0.6856274	0.16694567	0.6846108	0.21805711	0.41763508	0.83605754
9.007141451046048e-10	0.7319406	0.08231439	0.64799786	0.27379715	0.23985401	0.88676316
9.148794890204299e-10	0.77655464	0.026475435	0.59611803	0.3330696	0.05813819	0.89648205
9.285868909684823e-10	0.8175091	0.006299542	0.53752387	0.38731632	-0.112707555	0.8678372
9.41714417979483e-10	0.85200566	0.02169198	0.48049313	0.4369413	-0.25929284	0.807576
9.545646989976826e-10	0.8769672	0.068645544	0.4302777	0.48850057	-0.37414813	0.7219797
9.67062561894844e-10	0.88811034	0.13923295	0.39220613	0.54756135	-0.4474273	0.61987054
9.791674254757832e-10	0.883142	0.22244422	0.36928597	0.61662203	-0.4730502	0.5108731
9.908396959330815e-10	0.86295605	0.30664742	0.36211494	0.692976	-0.4488974	0.4044752
1.0023475964227193e-09	0.8304957	0.38401583	0.36952615	0.7710664	-0.3747319	0.3066478
1.0136063735977292e-09	0.791136	0.44680578	0.38930878	0.8393356	-0.25479954	0.22574206
1.0249260281444132e-09	0.7496279	0.49211362	0.41913542	0.88651717	-0.093816616	0.1666365
1.0362015505634532e-09	0.71183527	0.517239	0.45546457	0.89957416	0.09324048	0.13606781
1.047128832661417e-09	0.68265414	0.5225748	0.49359	0.8724201	0.28125897	0.13706768
1.0575880462249696e-09	0.6637814	0.51154613	0.5297936	0.80976593	0.4475576	0.16687411
1.0677999910813055e-09	0.65456975	0.48757708	0.56240475	0.72137403	0.5794226	0.22088318
1.0779157370268089e-09	0.6540153	0.45330647	0.5900599	0.6203358	0.66783255	0.29375783
1.088137856224995e-09	0.66099584	0.41063267	0.6117396	0.5205926	0.7091419	0.3799996
1.0990618680595947e-09	0.6751086	0.35928002	0.626703	0.432831	0.70296156	0.47719058
1.1106585628464678e-09	0.6954372	0.3022604	0.63254136	0.37218165	0.65089375	0.5762062
1.122400622985864e-09	0.7194525	0.24640992	0.6278807	0.34658775	0.56526756	0.66382843
1.1347436530402648e-09	0.7464242	0.19474408	0.61241865	0.3516825	0.45339525	0.73627365
1.1483916511628233e-09	0.7763645	0.15172444	0.58500105	0.38259566	0.31554198	0.78889674
1.163749268644695e-09	0.8078578	0.12711047	0.5456967	0.43299645	0.15443376	0.8113898
1.178923390103096e-09	0.8337311	0.1310884	0.50412476	0.48718396	0.0013379997	0.79576874
1.1935412666158782e-09	0.85027623	0.16080391	0.46760297	0.5389399	-0.12735558	0.748193
1.2076371969412808e-09	0.855374	0.2087792	0.44061804	0.5892032	-0.22167008	0.67754084
1.2214203832235598e-09	0.84843004	0.26653844	0.4253785	0.6412847	-0.2755206	0.592323
1.234720938407425e-09	0.8310955	0.32411715	0.4225834	0.69565773	-0.2849473	0.50330406
1.2477324152405653e-09	0.80662847	0.37464386	0.43093067	0.7512293	-0.2509554	0.4182322
1.260633459906385e-09	0.77898437	0.4133196	0.44841957	0.80385876	-0.1759093	0.3438356
1.2736138571037635e-09	0.75216526	0.4372112	0.47264555	0.8466137	-0.06331781	0.28617233
1.2856324745361291e-09	0.7315705	0.44478947	0.49822193	0.8686657	0.06685416	0.2533815
1.2967412933907703e-09	0.7180271	0.43979546	0.52219284	0.86688143	0.20008977	0.24393988
1.30716109788898e-09	0.710836	0.42576787	0.5431699	0.84133637	0.32541934	0.25490484
1.3170211947610704e-09	0.7089655	0.40553486	0.5603763	0.7952548	0.43256217	0.28300652
1.3266099710162078e-09	0.7113937	0.3808331	0.5737121	0.73397297	0.5149941	0.32529664
1.336312918167859e-09	0.7175375	0.35239902	0.5831304	0.66391367	0.56821066	0.37974212
1.3469248357274988e-09	0.72767746	0.31938234	0.58826697	0.5907177	0.5882353	0.44701317
1.357801695680942e-09	0.740788	0.28584683	0.5877881	0.53149426	0.5715166	0.51735824
1.3687305986997886e-09	0.75569606	0.25494373	0.5817181	0.49445742	0.52611935	0.58311737
1.3800157617218648e-09	0.77186346	0.228407	0.57029694	0.47966412	0.4595753	0.6410702
1.3925074782809164e-09	0.7894491	0.20788914	0.55293524	0.48564377	0.3724678	0.6899425
1.4056403336426217e-09	0.8061607	0.19838166	0.5314603	0.5089045	0.27362838	0.7219675
1.4196606497888924e-09	0.8202845	0.20277336	0.5077884	0.5438865	0.1669145	0.7335624
1.4344347617374448e-09	0.82913977	0.22249755	0.48542607	0.5844696	0.060627654	0.7213521
1.4491694070556495e-09	0.8303599	0.25402823	0.46888348	0.6245158	-0.03086263	0.6867424
1.463939242982899e-09	0.8235843	0.2920125	0.4602579	0.6636223	-0.09979074	0.6338909
1.4784650580345511e-09	0.8102136	0.32944873	0.4603746	0.70292985	-0.138514	0.56988776
1.4929165617511263e-09	0.79274416	0.3611645	0.46843243	0.7450701	-0.14355978	0.5009761
1.5072403045607426e-09	0.7744735	0.38305342	0.48260197	0.7899465	-0.11247699	0.43443114
1.5205989420147958e-09	0.75931776	0.39292523	0.49927056	0.8309543	-0.049665578	0.38016957
1.5329495387962582e-09	0.74868435	0.39268672	0.5156947	0.8610827	0.036605928	0.34196115
1.5443431490965296e-09	0.7425816	0.38507992	0.5301842	0.8738563	0.13590781	0.3211349
1.5548242789295452e-09	0.74032176	0.3727543	0.54188657	0.8661809	0.23600964	0.31712043
1.5648923916281893e-09	0.7410644	0.357156	0.5509241	0.83846945	0.32948068	0.32829896
1.574980010703443e-09	0.7443772	0.33898842	0.5573008	0.79313016	0.4091801	0.35379034
1.585137890606066e-09	0.7499006	0.31938827	0.56069714	0.7371918	0.46646786	0.3914361
1.5953425932694954e-09	0.7571739	0.2997105	0.56094253	0.68053937	0.49715695	0.43738768
1.6053854257424115e-09	0.76550454	0.28164065	0.558185	0.63268375	0.5026207	0.4862714
1.615405012613883e-09	0.7744495	0.2660579	0.5527605	0.59753215	0.48794827	0.5348516
1.6256509645081509e-09	0.78370416	0.25366893	0.5449303	0.57597834	0.45711467	0.58120996
1.6362489008030996e-09	0.79280984	0.2454508	0.5350729	0.5678317	0.41284597	0.62313545
1.646977201566402e-09	0.80095655	0.2423973	0.52409554	0.57154846	0.35872686	0.6574519
1.6580076329500087e-09	0.8076319	0.2448743	0.5126979	0.5845146	0.29620245	0.68279845
1.6694539866103388e-09	0.8122029	0.25304654	0.50175697	0.6041904	0.22677332	0.69743174
1.6811567202445138e-09	0.8139936	0.26631057	0.4924735	0.62767863	0.15425551	0.6995499
1.6930962322917155e-09	0.8126556	0.2834236	0.48579514	0.6529207	0.08263964	0.6883755
1.705451789537216e-09	0.80809253	0.30293173	0.48240504	0.6794969	0.015855206	0.6634775
1.7180287377182703e-09	0.80073655	0.32242003	0.48280874	0.7075878	-0.039146576	0.62603146
1.73084992374381e-09	0.7914412	0.33970723	0.4869621	0.73883265	-0.07629657	0.57820827
1.7440631243085531e-09	0.7812989	0.35292637	0.4944793	0.77505	-0.08927832	0.522859
1.7575019259193908e-09	0.771822	0.3603403	0.5043856	0.8151015	-0.07143803	0.46559379
1.7712248608872353e-09	0.7642742	0.36119565	0.5154706	0.85404474	-0.018070232	0.4126949
1.7836908273734648e-09	0.75998485	0.35641757	0.52518326	0.8792263	0.059657075	0.3756661
1.7949188121235843e-09	0.7584338	0.34826666	0.5328014	0.8857861	0.14730628	0.35577348
1.8055486152972078e-09	0.7589414	0.33797362	0.5384798	0.8734644	0.2363386	0.35127
1.816152500769302e-09	0.7611793	0.3260665	0.5422971	0.8432849	0.32021073	0.36139292
1.8272522684840454e-09	0.76507765	0.3128478	0.54409796	0.79775524	0.39226183	0.38636053
1.8385343645347555e-09	0.77028114	0.29971766	0.54357994	0.7458712	0.4421524	0.42360985
1.8496075011643787e-09	0.7761682	0.2881751	0.54090846	0.69837624	0.4665235	0.46763083
1.8607121710558566e-09	0.7823839	0.27884766	0.5363862	0.66041595	0.4683541	0.51489484
1.8721836120441595e-09	0.7886349	0.27231795	0.5302541	0.6344746	0.44995904	0.56286556
1.8840278173012595e-09	0.7943864	0.2693806	0.523003	0.6220966	0.41323766	0.60767907
1.896372445266468e-09	0.7991011	0.27057278	0.5152296	0.62278974	0.35977566	0.64584684
1.9095434252733975e-09	0.8022084	0.27628174	0.507596	0.63514626	0.29017773	0.67386043
1.9234298391116775e-09	0.8029971	0.2862755	0.50121427	0.6565775	0.2086104	0.6867258
1.9380918875554044e-09	0.8010224	0.29955938	0.49713027	0.6842815	0.121393144	0.68046975
1.9533567956677393e-09	0.79633546	0.3141027	0.49622318	0.7162149	0.039753545	0.65306735
1.9689850775335933e-09	0.7897089	0.3273095	0.4987451	0.75220454	-0.022481896	0.6064765
1.9849270915822478e-09	0.78238463	0.33692217	0.50424445	0.793221	-0.05235351	0.5462724
2.0010005634299574e-09	0.77583396	0.3413503	0.51163423	0.8368542	-0.039192494	0.48202768
2.015618299341626e-09	0.771561	0.3405067	0.51879627	0.8714159	0.013292769	0.4299086
2.028683639370138e-09	0.76952296	0.336184	0.5246789	0.8893235	0.08881463	0.395574
2.0409705230756946e-09	0.76923084	0.32966477	0.5291722	0.88828045	0.17528898	0.37843406
2.0532599467650968e-09	0.7704191	0.32153246	0.53225577	0.8675961	0.26428205	0.378247
2.0651788031847617e-09	0.77278125	0.31292382	0.5336753	0.831828	0.3409384	0.39408255
2.0769101667233434e-09	0.77600014	0.3045665	0.5335015	0.7883324	0.3984254	0.42284277
2.088672841285834e-09	0.77980196	0.29706448	0.5318499	0.7443908	0.43380347	0.46117166
2.1006365886407915e-09	0.7839024	0.29101524	0.5288792	0.7062224	0.4462315	0.50547194
2.1130593591371482e-09	0.7880124	0.28697422	0.5247854	0.6781587	0.43589926	0.5522936
2.1261508188080663e-09	0.79175115	0.2855357	0.519876	0.6631306	0.40305567	0.59753007
2.1401027081449234e-09	0.7946339	0.28721553	0.5146337	0.6623502	0.34840238	0.6361711
2.1551518332814553e-09	0.7960991	0.2922836	0.5097407	0.67517114	0.2737966	0.66227627
2.170855905981879e-09	0.7956459	0.30012646	0.5062091	0.69832253	0.18803775	0.6691499
2.1874480318460343e-09	0.79315704	0.3096206	0.50474256	0.7289288	0.10109397	0.6530843
2.2047375068504427e-09	0.789008	0.31887046	0.505796	0.765227	0.02944567	0.6137989
2.2227563308761603e-09	0.7840543	0.32591292	0.5092611	0.806955	-0.009015738	0.5560929
2.239219748820417e-09	0.7799649	0.32895112	0.51376605	0.84544426	-0.0018377516	0.49847224
2.254072827622144e-09	0.7772705	0.32864416	0.5181672	0.8739485	0.04141392	0.4516864
2.2678596516590873e-09	0.77591336	0.32597953	0.5219417	0.8877854	0.10801483	0.41962612
2.280944664224959e-09	0.7757226	0.3217611	0.5248224	0.8845942	0.18543892	0.40376806
2.293558641093995e-09	0.7764972	0.31666297	0.5266775	0.86541295	0.262027	0.40389216
2.3059128375463277e-09	0.77803415	0.31124845	0.5274723	0.83430123	0.32857177	0.41841006
2.318256882347571e-09	0.78015065	0.30598542	0.52722585	0.79684114	0.37893882	0.4449896
2.330805612959899e-09	0.7826625	0.30132708	0.5259879	0.7591055	0.40917206	0.48074427
2.343730572359802e-09	0.7853536	0.29774076	0.5238618	0.72683203	0.41705087	0.52209544
2.3572247837403114e-09	0.7879652	0.2956779	0.52102447	0.704514	0.401789	0.56487006
2.3714857745579923e-09	0.79018	0.29554343	0.517757	0.6949536	0.36370096	0.6041486
2.3866551784936414e-09	0.791622	0.29759282	0.51448715	0.6989187	0.30482367	0.6340919
2.4026172346946143e-09	0.7919316	0.30168915	0.5118026	0.71480596	0.23122907	0.6484329
2.4195198320820366e-09	0.7909248	0.30727342	0.510245	0.74000883	0.1519629	0.642573
2.4373152884443408e-09	0.78869295	0.31327963	0.5102458	0.77217674	0.081513315	0.61458665
2.455776066237516e-09	0.7857231	0.31831264	0.51188564	0.8090741	0.03795109	0.56807095
2.4727371883833743e-09	0.78305227	0.32099116	0.5144453	0.8426992	0.034597114	0.5184855
2.488609569228035e-09	0.78108346	0.32147244	0.517252	0.8682555	0.06599955	0.47510436
2.5033736231564805e-09	0.77997655	0.3202103	0.51978105	0.8806892	0.12106753	0.44449
2.517236575401519e-09	0.7796687	0.31777924	0.5217577	0.87822515	0.18696375	0.42887005
2.530600630516844e-09	0.7800313	0.3146455	0.5230805	0.86209786	0.25329897	0.42793047
2.5438216665432025e-09	0.7809462	0.31118283	0.52370334	0.8355235	0.31188104	0.4404723
2.557107702843004e-09	0.7822906	0.30775994	0.5236069	0.80340135	0.35599867	0.46443626
2.5706970831941315e-09	0.78393006	0.3047309	0.5228126	0.7712623	0.38113558	0.49696043
2.5848157792121394e-09	0.7856997	0.30246052	0.5213889	0.744464	0.3844901	0.53434753
2.599694792812272e-09	0.7873889	0.3013101	0.5194745	0.7273611	0.3648348	0.57198584
2.615385694297851e-09	0.7887207	0.30157787	0.517332	0.7226254	0.32326958	0.6039434
2.6319547091194206e-09	0.78941727	0.30335045	0.5153237	0.7303965	0.26400208	0.624104
2.649530484224297e-09	0.7892677	0.3064216	0.513859	0.74900305	0.1948165	0.6271052
2.6678125136974633e-09	0.7882441	0.31014678	0.51332253	0.7754734	0.12955487	0.61018014
2.6867070980864327e-09	0.786578	0.31365627	0.51386523	0.8067805	0.08388295	0.5754849
2.7047779149575877e-09	0.7848295	0.31596753	0.51523244	0.83658546	0.07160359	0.5335889
2.7221198116608586e-09	0.783389	0.3168375	0.5169941	0.85973305	0.09253197	0.49423924
2.7385239406541038e-09	0.7824881	0.31637928	0.5187221	0.8709522	0.1383096	0.46549666
2.753815156572969e-09	0.7821624	0.3149758	0.52011204	0.8683212	0.19527559	0.45115146
2.7684406711592224e-09	0.7823274	0.3130046	0.52105474	0.85359466	0.25246224	0.45084202
2.78279880190288e-09	0.78289217	0.31077346	0.5215055	0.83032906	0.30166903	0.46298072
2.7973588673956033e-09	0.78377396	0.30853856	0.5214489	0.80289066	0.33714008	0.4854739
2.812421903398519e-09	0.78487265	0.30658495	0.52088916	0.776402	0.35414663	0.51537526
2.8283124912636713e-09	0.78605396	0.30521542	0.5198751	0.7558704	0.34953722	0.54868895
2.8450299883656493e-09	0.7871133	0.3047372	0.51855564	0.74553883	0.32265398	0.57953036
2.8627652574828112e-09	0.7878323	0.3053256	0.5171626	0.7471821	0.27621204	0.6016966
2.8814423779660218e-09	0.7880091	0.30693242	0.5160156	0.76019454	0.21781354	0.6091204
2.9006925575376745e-09	0.78757507	0.30917215	0.51542306	0.7816995	0.16063422	0.5986824
2.9203545630728467e-09	0.7866564	0.3114569	0.5155331	0.80795544	0.119234316	0.5722236
2.9391921996428622e-09	0.7855899	0.31311467	0.51623815	0.8329134	0.105726585	0.53840834
2.957620805020529e-09	0.78463686	0.3139039	0.5172957	0.85210794	0.12102987	0.505379
2.9755310268698545e-09	0.783994	0.31377947	0.5184251	0.8607335	0.15954061	0.48082468
2.992280651663824e-09	0.78374404	0.3129471	0.5193576	0.85691154	0.20820516	0.46951175
3.008170342467047e-09	0.7838398	0.31169775	0.51998293	0.8429558	0.2557479	0.47107917
3.023870737948585e-09	0.7842176	0.3102533	0.52026784	0.8224184	0.29505357	0.48369986
3.0400282400257827e-09	0.784822	0.30880752	0.5201919	0.7993155	0.32071108	0.5053072
3.057075256253577e-09	0.78557545	0.3075937	0.5197509	0.77846014	0.3278272	0.532776
3.0751556540496635e-09	0.78634536	0.3068832	0.51900315	0.7648883	0.31342167	0.5609446
3.0943048964203774e-09	0.78695434	0.3068904	0.5180997	0.76201475	0.27865848	0.5831864
3.1143313890409657e-09	0.7872277	0.3076561	0.51727587	0.7703859	0.23050025	0.59298134
3.134632402176502e-09	0.78708696	0.30894586	0.51677567	0.78735185	0.18193536	0.5869802
3.1546859850926287e-09	0.7866136	0.31034294	0.51671684	0.80845845	0.1466488	0.567419
3.174290088298672e-09	0.7859868	0.31146485	0.51705974	0.8290326	0.13340737	0.5405405
3.1938466042299724e-09	0.78537965	0.3120868	0.5176808	0.8448025	0.14469327	0.51324975
3.2131090676077135e-09	0.7849474	0.31210673	0.5183969	0.85127294	0.17660402	0.4929078
3.2311897896661912e-09	0.7847718	0.31162608	0.5190059	0.846934	0.21731064	0.48431692
3.248320800773322e-09	0.7848302	0.31084704	0.51941377	0.8342775	0.2561607	0.48714277
3.2653181340793952e-09	0.7850807	0.30993038	0.51959187	0.8167026	0.28671324	0.499509
3.282901272038204e-09	0.78548265	0.30902392	0.519523	0.79796857	0.3039227	0.519191
3.301672426814919e-09	0.7859765	0.30830133	0.5192062	0.7824	0.30341062	0.54287547
3.321732301582185e-09	0.78645295	0.3079661	0.51869756	0.77453226	0.28314918	0.56491923
3.3424265216801596e-09	0.7867679	0.30813766	0.51814616	0.77675235	0.24768923	0.5783487
3.3633213588396395e-09	0.7868346	0.3087421	0.5177217	0.78774804	0.20722708	0.5790604
3.3840104217814877e-09	0.78666043	0.30955687	0.51754075	0.8039517	0.17371207	0.56736785
3.404346302270427e-09	0.7863323	0.31032765	0.51762605	0.8211741	0.15617248	0.54743624
3.4246684413717277e-09	0.7859594	0.31086496	0.51792926	0.83549684	0.15868714	0.5249249
3.4450675866238518e-09	0.78564864	0.3110487	0.5183565	0.84294057	0.18036987	0.5061471
3.464638111347811e-09	0.7854836	0.31087205	0.518771	0.8411648	0.21292602	0.49660942
3.48308133363435e-09	0.78547597	0.31045046	0.5190761	0.8317517	0.24570826	0.4973153
3.501152000582252e-09	0.7856015	0.30990282	0.5192382	0.817788	0.27194393	0.5066403
3.5197052010125052e-09	0.7858341	0.30933183	0.5192417	0.8025606	0.28691518	0.52247983
3.539404260156554e-09	0.78613544	0.30885485	0.5190828	0.7898292	0.28665763	0.54177624
3.5603973019004774e-09	0.78643566	0.30860806	0.5187936	0.783549	0.26950058	0.5594993
3.581940426180675e-09	0.78664	0.3086757	0.51846874	0.78583556	0.23992325	0.5695707
3.6034353470978077e-09	0.786693	0.30901092	0.5182183	0.7953618	0.20754014	0.56882817
3.6246312816750176e-09	0.7866019	0.3094771	0.5181125	0.8088454	0.18230633	0.5581844
3.645625698080736e-09	0.7864182	0.3099245	0.5181664	0.82261807	0.1711273	0.5413868
3.666854237459738e-09	0.7862075	0.3102345	0.5183548	0.83315545	0.1769609	0.52334523
3.6882830322691463e-09	0.7860376	0.31032556	0.51861835	0.83704257	0.19808494	0.509666
3.708706664197685e-09	0.78595984	0.3101971	0.5188665	0.8331056	0.22586478	0.5046587
3.728114665179596e-09	0.7859775	0.30992442	0.5190429	0.82354534	0.2513882	0.50826436
3.747483980139047e-09	0.7860768	0.309581	0.5191266	0.8112679	0.26928106	0.51871765
3.767665242404611e-09	0.7862395	0.30923963	0.5191065	0.7994407	0.27545482	0.5336516
3.789143846877786e-09	0.7864323	0.30898756	0.51898634	0.7916234	0.26719254	0.5493121
3.811629512440587e-09	0.78659934	0.30890822	0.51880485	0.7907154	0.24591331	0.5603917
3.834024428612849e-09	0.7866861	0.3090169	0.51863444	0.79673785	0.21934874	0.562729
3.855994678021814e-09	0.78668106	0.30924883	0.5185329	0.80708295	0.19661772	0.55621034
3.877724791311088e-09	0.78660566	0.30951485	0.5185245	0.81850404	0.18441123	0.54354846
3.8997316366467024e-09	0.7864958	0.30973443	0.5186067	0.827839	0.18617336	0.5287477
3.922312174679347e-09	0.78639257	0.3098418	0.51875514	0.83198017	0.20170821	0.51659924
3.944078657569308e-09	0.78633565	0.309809	0.5189147	0.8293442	0.22434154	0.5115918
3.9646884791038265e-09	0.786336	0.30967078	0.5190407	0.8216829	0.2456242	0.51419616
3.985093455888938e-09	0.78638834	0.3094734	0.519114	0.8116798	0.2603299	0.52277505
4.0063135388396315e-09	0.78648347	0.3092622	0.5191247	0.8021323	0.26484856	0.535104
4.02749427242408e-09	0.7865952	0.3091011	0.51907635	0.7963711	0.25776365	0.54703045
4.047983885030545e-09	0.78669256	0.30902725	0.5189955	0.79572266	0.24244566	0.55486673
4.0678696949671844e-09	0.7867571	0.3090406	0.51891196	0.79953307	0.22399645	0.55704385
4.08737418973797e-09	0.7867826	0.3091209	0.5188489	0.8063278	0.20726815	0.55362546
4.106646186020656e-09	0.78677297	0.3092379	0.51882094	0.8143112	0.19619021	0.54589146
4.1257888037015825e-09	0.78673923	0.30935878	0.5188332	0.82161814	0.19315988	0.5359795
4.144844247484585e-09	0.7866959	0.30945423	0.5188816	0.8265528	0.19859166	0.5264208
4.1638427125734005e-09	0.7866566	0.30950361	0.5189549	0.8279421	0.21081021	0.51954323
4.182829095017965e-09	0.78663266	0.309498	0.51903754	0.8254703	0.22652169	0.51692307
4.2017846080268814e-09	0.7866311	0.30944067	0.5191134	0.8198553	0.24164137	0.5190334
4.2206863849571055e-09	0.7866537	0.3093464	0.5191693	0.8126853	0.2524549	0.5251307
4.239581447593427e-09	0.78669727	0.30923647	0.5191976	0.80587393	0.25659084	0.5335532
4.258471089229757e-09	0.7867541	0.309134	0.51919746	0.8011144	0.25340837	0.5421601
4.277341995436475e-09	0.786814	0.3090584	0.5191742	0.79942477	0.24404305	0.5488742
4.296162517056602e-09	0.78686655	0.30902106	0.51913786	0.80097455	0.23102085	0.5521815
4.314968330584171e-09	0.78690445	0.30902353	0.5191005	0.80519253	0.21753143	0.55146056
4.333768872400437e-09	0.78692454	0.30905908	0.5190726	0.810996	0.20675497	0.5470426
4.352561281635635e-09	0.78692794	0.3091147	0.51906204	0.8170273	0.2011595	0.5401139
4.371379059392561e-09	0.78691936	0.3091749	0.51907223	0.82191414	0.20193495	0.5324036
4.390201309466583e-09	0.786905	0.3092244	0.51910204	0.8245128	0.20871827	0.5257989
4.409006886550054e-09	0.7868916	0.30925137	0.519146	0.82421625	0.21964781	0.5218604
4.4277907594628224e-09	0.78688467	0.30924952	0.51919675	0.8211526	0.23188925	0.52143276
4.44659042749976e-09	0.78688824	0.30921897	0.5192455	0.8161642	0.24242926	0.5244772
4.465428364259027e-09	0.7869043	0.30916566	0.519285	0.81057805	0.24879692	0.5301288
4.484273947271143e-09	0.7869319	0.30910036	0.5193101	0.80583376	0.24964264	0.5369119
4.5030841778710205e-09	0.78696764	0.30903554	0.51931936	0.8030535	0.24504694	0.54313725
4.521869049353251e-09	0.78700644	0.3089823	0.5193148	0.8027651	0.23636945	0.5473562
4.540677197134325e-09	0.7870433	0.3089482	0.5193012	0.80487937	0.22580466	0.5486637
4.559514438664749e-09	0.78707373	0.3089363	0.5192845	0.8087882	0.21590632	0.5468563
4.5783616976903025e-09	0.7870955	0.30894497	0.5192712	0.81352264	0.20901096	0.5424779
4.5972225222330246e-09	0.7871083	0.3089686	0.5192663	0.81797093	0.20667616	0.536667
4.616042000873374e-09	0.7871136	0.30899903	0.51927286	0.82109183	0.20931533	0.53088784
4.634839955692195e-09	0.787114	0.30902728	0.5192913	0.82217556	0.21610469	0.5265218
4.653648915327623e-09	0.7871127	0.30904526	0.51931953	0.8209998	0.22525318	0.5245595
4.672479177252361e-09	0.7871131	0.30904743	0.51935387	0.8179064	0.23445061	0.5253852
4.691328617097761e-09	0.7871181	0.30903164	0.5193894	0.81373084	0.24146003	0.52869266
4.71015568620085e-09	0.78712964	0.30899972	0.51942104	0.8095717	0.24467988	0.5335717
4.728970969853127e-09	0.7871485	0.30895704	0.519445	0.8064519	0.24353321	0.5387824
4.747797766917097e-09	0.7871734	0.30891052	0.51945955	0.80506325	0.23849717	0.54307175
4.766651833652887e-09	0.787202	0.30886772	0.5194646	0.80563706	0.23092456	0.54545647
4.7855185852693635e-09	0.78723145	0.3088347	0.51946235	0.80793375	0.22271411	0.54544
4.804364104365311e-09	0.7872586	0.3088154	0.5194561	0.8113329	0.2158521	0.54312485