# t (s)	mx ()	my ()	mz ()	m.region1x ()	m.region1y ()	m.region1z ()
0	0	1	0	0	1	0
1.023e-12	-0.01778746	0.99977916	0.009983255	-0.33418083	0.9423549	0.016896524
2.047e-12	-0.0352121	0.9991329	0.020035958	-0.60204643	0.79758763	0.036501374
3.1485915262994495e-12	-0.05351779	0.99799424	0.030910071	-0.7910282	0.6091488	0.05459389
4.297174069444194e-12	-0.07211308	0.9963507	0.042306907	-0.89991236	0.43021727	0.06763635
5.593386723448721e-12	-0.09249202	0.99397063	0.05523232	-0.9581029	0.27466166	0.076081194
6.877533632939423e-12	-0.11204199	0.99109614	0.06809511	-0.98216486	0.16690548	0.08008961
8.179313224483398e-12	-0.13120443	0.98768926	0.08118385	-0.99162585	0.093398094	0.081638396
9.554343293574663e-12	-0.15072069	0.98358685	0.095052876	-0.99500006	0.0427369	0.081854284
1.1031122818504445e-11	-0.17084481	0.978646	0.10998647	-0.99586725	0.008543928	0.0813305
1.263489780211724e-11	-0.19171184	0.97270465	0.12623492	-0.9958481	-0.013748407	0.08040638
1.4391848621652353e-11	-0.2133866	0.96557313	0.14405426	-0.9956358	-0.027573124	0.079254776
1.633312888055583e-11	-0.23589318	0.9570205	0.16374409	-0.99548644	-0.035550933	0.07792788
1.8497021316545057e-11	-0.2592023	0.9467636	0.18566477	-0.9954652	-0.039660927	0.07638823
2.0934657238438048e-11	-0.28323382	0.93443996	0.21028781	-0.9955673	-0.041375484	0.07452861
2.371456451532857e-11	-0.30780345	0.91958535	0.23822828	-0.99577206	-0.041768957	0.07218667
2.692292032383533e-11	-0.3324887	0.90164423	0.27022442	-0.99606043	-0.04163021	0.06916163
3.0611811228186105e-11	-0.3561682	0.8803088	0.3065948	-0.99641114	-0.041566987	0.06529848
3.462048696773586e-11	-0.3764459	0.85666436	0.34551096	-0.99677753	-0.042008966	0.060767353
3.874943620352392e-11	-0.3917135	0.83218324	0.38483623	-0.9971108	-0.043101758	0.055938024
4.300148532178049e-11	-0.40185052	0.80714464	0.42444116	-0.9973871	-0.044827282	0.051021248
4.742727803741912e-11	-0.40680298	0.78149915	0.4646233	-0.997592	-0.047111046	0.0461946
5.208288284078308e-11	-0.40632612	0.75512505	0.5056729	-0.9977164	-0.04983743	0.041648842
5.7034089402245044e-11	-0.39996904	0.7278002	0.54788643	-0.9977596	-0.052850526	0.037580546
6.232081282291104e-11	-0.38715902	0.69936585	0.5912459	-0.9977296	-0.055929154	0.03419846
6.782585575922278e-11	-0.36791265	0.6703434	0.63443565	-0.9976492	-0.058744162	0.031703647
7.353678479298209e-11	-0.34233868	0.64048433	0.67703915	-0.9975476	-0.061080452	0.03005606
7.946866778184725e-11	-0.3105567	0.60920584	0.71881056	-0.9974513	-0.06282678	0.02906794
8.565341710395692e-11	-0.2726818	0.5756324	0.75953555	-0.9973781	-0.063988775	0.028454334
9.218269855825955e-11	-0.2285309	0.5383076	0.7992171	-0.99733466	-0.06468994	0.027895734
9.875861106013795e-11	-0.18093692	0.49791303	0.8355234	-0.9973173	-0.06511297	0.027168944
1.0536206425807284e-10	-0.13126877	0.45373383	0.8680356	-0.99731237	-0.0654837	0.026185
1.1202660027580439e-10	-0.08059669	0.40483165	0.89656496	-0.99730587	-0.06594384	0.024989098
1.1877743897864344e-10	-0.030141711	0.35044467	0.9207888	-0.99729013	-0.06653315	0.023697885
1.2556851825350945e-10	0.01828027	0.29064927	0.9401276	-0.99726456	-0.06720513	0.022438964
1.3234535298942368e-10	0.06289732	0.22605477	0.954145	-0.99723387	-0.06787682	0.021281011
1.3914040204326512e-10	0.10270589	0.15683015	0.9626998	-0.9972047	-0.06848601	0.020200884
1.4600772520742634e-10	0.13693349	0.08313158	0.96561027	-0.9971816	-0.06900769	0.01911707
1.5298153987506394e-10	0.16482323	0.005528733	0.9626049	-0.99716663	-0.06945217	0.017928788
1.599754052988369e-10	0.18554007	-0.073808186	0.95358986	-0.99715835	-0.06984862	0.016572066
1.6702406052958884e-10	0.19920665	-0.15391031	0.9385512	-0.9971533	-0.07023927	0.015006428
1.7415755465822392e-10	0.20626052	-0.23372911	0.91746825	-0.9971474	-0.07065186	0.01323837
1.8131947590943317e-10	0.20751134	-0.31131816	0.89066976	-0.9971385	-0.07108589	0.011331815
1.8841153025817942e-10	0.20435353	-0.3845713	0.8589249	-0.99712676	-0.07151649	0.009375901
1.955318826212704e-10	0.19839907	-0.453716	0.822225	-0.9971132	-0.0719203	0.0073902435
2.0262284011410443e-10	0.1914615	-0.51762277	0.78125906	-0.99710053	-0.07226535	0.005408058
2.096295200472461e-10	0.185413	-0.57555735	0.7368207	-0.99709034	-0.07253205	0.003434445
2.1661421775246212e-10	0.18194649	-0.6279322	0.6889455	-0.99708277	-0.07271993	0.0014262026
2.2359828852543296e-10	0.18273881	-0.67476296	0.637812	-0.9970769	-0.07283797	-0.0006495762
2.3051841077393026e-10	0.18929957	-0.7154901	0.5842016	-0.9970703	-0.072902225	-0.0027887996
2.374267839863037e-10	0.2030121	-0.7501656	0.5280064	-0.9970606	-0.07293267	-0.005005594
2.44305775740549e-10	0.22501832	-0.77817935	0.46963397	-0.9970458	-0.07294521	-0.0072790734
2.5112224732204495e-10	0.2560397	-0.7986538	0.4096662	-0.9970247	-0.072949715	-0.009575971
2.578671628863462e-10	0.29644132	-0.8105624	0.34853688	-0.99699694	-0.072949365	-0.011872642
2.6458404012068605e-10	0.3465462	-0.8125813	0.28625628	-0.9969627	-0.07294218	-0.01417084
2.7122790325073565e-10	0.40555987	-0.8029974	0.2237412	-0.9969223	-0.072923765	-0.016450254
2.777843113048814e-10	0.4721479	-0.78008854	0.16175528	-0.9968764	-0.07288954	-0.018705728
2.8431005388738486e-10	0.5450415	-0.7417405	0.10051974	-0.99682444	-0.072834976	-0.02095662
2.9085591497316323e-10	0.62226796	-0.68546784	0.040496305	-0.99676627	-0.07275467	-0.023216218
2.973445111754706e-10	0.69942355	-0.6102443	-0.016494382	-0.9967027	-0.072642624	-0.025447236
3.0368864562290937e-10	0.7712523	-0.5169139	-0.06855479	-0.9966361	-0.07249097	-0.027603729
3.0983745938339315e-10	0.83292884	-0.40779954	-0.114278056	-0.99656886	-0.07228884	-0.02965106
3.1581391820823715e-10	0.88090944	-0.28533474	-0.1530205	-0.99650335	-0.07202046	-0.031581067
3.216373391747967e-10	0.91228014	-0.15278298	-0.18424597	-0.99644214	-0.0716671	-0.03338631
3.273132885736441e-10	0.92500526	-0.014328141	-0.20753305	-0.9963882	-0.071209095	-0.035056394
3.328468871498875e-10	0.91826	0.12549393	-0.22270961	-0.9963445	-0.070626915	-0.036580782
3.382474319734389e-10	0.8924423	0.2623098	-0.22986498	-0.99631387	-0.06990174	-0.037947726
3.435143274999193e-10	0.84912336	0.39192387	-0.2293149	-0.99629956	-0.06901879	-0.03913868
3.486561615647807e-10	0.79072773	0.51109636	-0.22159392	-0.9963042	-0.067966186	-0.040131725
3.536744208986618e-10	0.720338	0.6173251	-0.20739982	-0.99633026	-0.06673911	-0.040897593
3.58574437620655e-10	0.6412677	0.70916605	-0.18753195	-0.99637985	-0.06533944	-0.04140314
3.6336568050022217e-10	0.556723	0.78613734	-0.16281106	-0.99645406	-0.063775964	-0.041612945
3.680550161783252e-10	0.4696917	0.84844524	-0.13405734	-0.99655294	-0.06206687	-0.04149201
3.726556669428373e-10	0.38264894	0.89692813	-0.10200335	-0.9966752	-0.060236324	-0.041009735
3.771809065176354e-10	0.29761627	0.9327574	-0.0673002	-0.9968179	-0.058315326	-0.040143363
3.8165024651698573e-10	0.21606131	0.9573138	-0.03045873	-0.99697703	-0.056337524	-0.038880076
3.860829829877221e-10	0.13908046	0.9719926	0.008104863	-0.99714726	-0.054339916	-0.037220493
3.905020046371824e-10	0.06740992	0.97813964	0.048091967	-0.997322	-0.052359402	-0.03517975
3.9493116137592127e-10	0.0015576186	0.97698635	0.089287594	-0.9974949	-0.050432354	-0.032789975
3.993784151324001e-10	-0.057911705	0.9696704	0.13138449	-0.99765825	-0.048600007	-0.030112537
4.0385696081290833e-10	-0.11068423	0.957252	0.17416587	-0.9978064	-0.046896875	-0.02722781
4.083781725262338e-10	-0.15655404	0.94069535	0.21743415	-0.99793524	-0.045352448	-0.024235858
4.129340427261132e-10	-0.19527088	0.9209478	0.26083782	-0.99804264	-0.04399542	-0.02126295
4.174930369181588e-10	-0.22664328	0.89899266	0.30383834	-0.99812907	-0.042851	-0.018452683
4.2201214199812585e-10	-0.25073895	0.87578356	0.34584203	-0.9981974	-0.041934866	-0.015939428
4.2646382138073117e-10	-0.26799473	0.8520627	0.38646102	-0.9982516	-0.041249394	-0.013817173
4.308414761410102e-10	-0.27905405	0.82829976	0.42554998	-0.9982955	-0.0407895	-0.01213541
4.3515960129106314e-10	-0.2845909	0.80469894	0.46318167	-0.99833137	-0.040549006	-0.0109081045
4.394387876593638e-10	-0.28517982	0.78131	0.49948925	-0.99836	-0.040525813	-0.010129364
4.4370485613832904e-10	-0.28127337	0.75806296	0.53464395	-0.99838036	-0.040722657	-0.009779842
4.4798745860604984e-10	-0.2731956	0.7347955	0.56883013	-0.99839	-0.041147128	-0.009830796
4.5231924064840896e-10	-0.2611482	0.71126944	0.602227	-0.9983859	-0.04181089	-0.010245094
4.5672903016065647e-10	-0.24524823	0.6872091	0.63494796	-0.99836445	-0.042726647	-0.010974005
4.6118169410802205e-10	-0.22585014	0.6626333	0.66662055	-0.99832344	-0.043886814	-0.011936932
4.657069926959637e-10	-0.203086	0.6371553	0.6973393	-0.9982619	-0.045287374	-0.013042599
4.703295636481399e-10	-0.17707488	0.6103591	0.7271169	-0.9981807	-0.04691424	-0.014179628
4.750820048236461e-10	-0.14788094	0.5817161	0.7559621	-0.99808264	-0.048744116	-0.015215819
4.799506287739276e-10	-0.115893185	0.5509194	0.7835589	-0.9979739	-0.050719824	-0.015987584
4.846470388935418e-10	-0.08353314	0.5195401	0.8082101	-0.99786836	-0.052654732	-0.01632075
4.892248225591277e-10	-0.05103853	0.4871407	0.83028364	-0.9977715	-0.054504525	-0.016151845
4.93712628516816e-10	-0.018716155	0.45345968	0.8499596	-0.99768656	-0.056228638	-0.015441132
4.981385495638519e-10	0.0131849535	0.41825342	0.8673738	-0.99761516	-0.05779882	-0.014172633
5.025309995877747e-10	0.044455647	0.38128158	0.8826199	-0.99755716	-0.059197247	-0.01234975
5.069234794487126e-10	0.07493796	0.3422601	0.89575934	-0.99751145	-0.06041485	-0.009988994
5.113541617936789e-10	0.104495935	0.30085334	0.90680563	-0.9974764	-0.0614471	-0.0071155257
5.157211569555582e-10	0.13210109	0.25811687	0.91545975	-0.9974513	-0.062265605	-0.003874555
5.199869295534775e-10	0.15729237	0.21465924	0.921721	-0.9974343	-0.06287103	-0.0004038307
5.241823849319165e-10	0.18010254	0.17044026	0.9257273	-0.9974241	-0.063275404	0.0032113558
5.283296422277129e-10	0.20053172	0.1254931	0.9275643	-0.9974199	-0.063482426	0.006887061
5.324485659057923e-10	0.21858482	0.07986721	0.92728555	-0.99742126	-0.063488945	0.010541222
5.365562609844207e-10	0.23426922	0.03363951	0.9249182	-0.99742824	-0.06328708	0.014087756
5.406652515356854e-10	0.24759383	-0.013059552	0.92047215	-0.9974411	-0.062868215	0.017429937
5.447786990684249e-10	0.25857008	-0.059987824	0.9139609	-0.99746084	-0.062229794	0.020454945
5.488861350112322e-10	0.26723105	-0.1067449	0.9054345	-0.9974883	-0.06138362	0.023037024
5.529632557884916e-10	0.27366576	-0.15278365	0.8950124	-0.9975254	-0.060362414	0.025053853
5.569863167139837e-10	0.27805665	-0.19759497	0.8828651	-0.9975731	-0.059216965	0.026413992
5.609428020367099e-10	0.28066438	-0.24084099	0.86916816	-0.9976323	-0.05800645	0.027069988
5.648418023832607e-10	0.2817874	-0.28246176	0.85402954	-0.9977029	-0.05678637	0.027013125
5.686954796283758e-10	0.28171813	-0.32245594	0.8375259	-0.99778396	-0.05560832	0.026257917
5.725220880426244e-10	0.28073704	-0.36089963	0.81968296	-0.9978735	-0.054516707	0.02483353
5.763383251899618e-10	0.27911422	-0.3978554	0.8005056	-0.99796814	-0.05355081	0.022778703
5.801600329977157e-10	0.27711666	-0.43337494	0.77997875	-0.99806404	-0.052745152	0.020138917
5.840025388373083e-10	0.27501622	-0.46749693	0.75806904	-0.9981559	-0.0521306	0.01696468
5.878803538189441e-10	0.2730968	-0.50024	0.73472893	-0.9982381	-0.05173555	0.013311714
5.918120122146643e-10	0.2716609	-0.5316365	0.7098687	-0.9983037	-0.051587135	0.00923771
5.958178643269327e-10	0.27104256	-0.5616998	0.6833664	-0.99834555	-0.05171347	0.004807101
5.999271351947005e-10	0.2716246	-0.5904597	0.6550187	-0.9983557	-0.052146334	8.9150075e-05
6.041839335979671e-10	0.27387607	-0.6179631	0.62448645	-0.9983258	-0.0529265	-0.0048397887
6.084014020333709e-10	0.2781004	-0.64283675	0.59313864	-0.9982524	-0.05403479	-0.009608708
6.125213888432813e-10	0.28444862	-0.6647606	0.56153023	-0.9981382	-0.055436272	-0.0140015185
6.16558945815444e-10	0.29306376	-0.6838606	0.5296756	-0.99798805	-0.057105243	-0.017907197
6.205332545833911e-10	0.3040822	-0.7002272	0.49753422	-0.99780875	-0.059015542	-0.021241978
6.244670144241202e-10	0.3176543	-0.71389604	0.46501693	-0.99760777	-0.06113951	-0.02394975
6.283846944057357e-10	0.33395645	-0.72482455	0.43200308	-0.99739283	-0.06344489	-0.026001468
6.323096239431899e-10	0.35318696	-0.73287076	0.39836973	-0.9971717	-0.06588963	-0.027395973
6.362631017892641e-10	0.37555724	-0.73778236	0.36400688	-0.9969519	-0.068417214	-0.028164366
6.402639035894118e-10	0.4012754	-0.73918796	0.32882935	-0.99673986	-0.070953526	-0.028375035
6.44328037868361e-10	0.430523	-0.73659056	0.29278818	-0.9965419	-0.07340667	-0.0281368
6.484682523490774e-10	0.46342057	-0.7293649	0.25588453	-0.99636334	-0.07567168	-0.027597435
6.526945337033748e-10	0.49999088	-0.71675754	0.21817595	-0.9962092	-0.07764184	-0.026934817
6.570159481624143e-10	0.5401293	-0.69788796	0.17977144	-0.99608374	-0.079224974	-0.026339239
6.614402834227921e-10	0.58354914	-0.6717566	0.14084728	-0.995989	-0.08035918	-0.025989352
6.659762191807763e-10	0.6297438	-0.6372522	0.10164253	-0.9959245	-0.08102455	-0.02602549
6.706289545654926e-10	0.6778754	-0.5932213	0.062512845	-0.99588567	-0.081244536	-0.026525982
6.754012262121656e-10	0.72671807	-0.5385513	0.023934223	-0.99586517	-0.08107861	-0.027490696
6.802972564596823e-10	0.77464455	-0.47223446	-0.013518099	-0.99585485	-0.080605194	-0.028839367
6.850820282595868e-10	0.81757	-0.3974987	-0.047524255	-0.99584943	-0.07993903	-0.030347327
6.897203781125953e-10	0.8537394	-0.31610647	-0.0775442	-0.9958477	-0.07916392	-0.03182301
6.941956366759068e-10	0.8819706	-0.22996053	-0.10331031	-0.99585277	-0.07832917	-0.033120055
6.985245200843237e-10	0.9016936	-0.14049545	-0.12485391	-0.995869	-0.07745365	-0.03415226
7.027404249706857e-10	0.9126395	-0.048738375	-0.14231035	-0.99590045	-0.0765372	-0.034877714
7.068768318389102e-10	0.91463596	0.044405103	-0.15578619	-0.99595064	-0.07557044	-0.035279818
7.109633029518194e-10	0.9075662	0.1380279	-0.1653353	-0.99602145	-0.0745398	-0.03535561
7.150258728610015e-10	0.89137876	0.23118801	-0.17096585	-0.99611384	-0.07343001	-0.035108052
7.190872758376282e-10	0.86611164	0.32288367	-0.1726505	-0.99622744	-0.072225906	-0.034540534
7.231665245429478e-10	0.8319326	0.41203064	-0.17034025	-0.99636084	-0.070914336	-0.033653136
7.272802650222169e-10	0.78917253	0.49749807	-0.16398066	-0.99651194	-0.06948561	-0.03244004
7.314420767061849e-10	0.7383672	0.5781172	-0.15352851	-0.9966774	-0.06793586	-0.030888924
7.356616218782211e-10	0.68030345	0.6527113	-0.13897398	-0.99685293	-0.06626948	-0.028982624
7.399458016809166e-10	0.61602294	0.72018236	-0.12035709	-0.9970329	-0.064500704	-0.026702529
7.443007762119517e-10	0.54678077	0.7796052	-0.09777056	-0.9972108	-0.062653854	-0.024033278
7.487327528628492e-10	0.47399533	0.8302805	-0.0713577	-0.9973793	-0.060762834	-0.020969503
7.532503568639126e-10	0.39916047	0.87178123	-0.04129386	-0.99753124	-0.05886824	-0.017521756
7.578166414182459e-10	0.32456815	0.9036578	-0.008137449	-0.9976583	-0.057032745	-0.013763693
7.6234740945699e-10	0.25311786	0.9258946	0.02705457	-0.99775475	-0.055329625	-0.009845238
7.668311234981933e-10	0.18618293	0.9394909	0.063692585	-0.9978209	-0.0537872	-0.005877008
7.712532230766825e-10	0.12482606	0.9456024	0.101190545	-0.9978607	-0.05241828	-0.0019733084
7.755598886152561e-10	0.070220836	0.945489	0.13866012	-0.9978802	-0.05122992	0.0017306845
7.79697628155085e-10	0.022997366	0.9405663	0.1752528	-0.99788713	-0.050212283	0.0051295417
7.837289374641147e-10	-0.017807761	0.931963	0.21122313	-0.99788827	-0.049321394	0.008241699
7.876938742399987e-10	-0.0528028	0.9204761	0.24670719	-0.9978881	-0.048522543	0.011080335
7.916276895557826e-10	-0.08245964	0.9066751	0.28184414	-0.9978895	-0.04778543	0.0136633525
7.955576189925492e-10	-0.10710135	0.890986	0.3167277	-0.9978938	-0.047084566	0.016007876
7.995080140514011e-10	-0.12696202	0.87372136	0.35143927	-0.9979009	-0.04639831	0.018131185
8.035021022676182e-10	-0.14220397	0.85510224	0.38605416	-0.99790937	-0.045709148	0.020048779
8.075588764305079e-10	-0.15291649	0.83528984	0.4206088	-0.99791795	-0.04500517	0.02177007
8.116949415475056e-10	-0.15914342	0.81438994	0.45511255	-0.9979241	-0.04428123	0.023296647
8.159235504202194e-10	-0.16089936	0.7924622	0.48953757	-0.99792594	-0.043541115	0.024619123
8.202092060876636e-10	-0.15824263	0.7697649	0.5234634	-0.9979221	-0.04280728	0.025704756
8.245178667034331e-10	-0.15140721	0.74650264	0.5565138	-0.9979121	-0.042112097	0.026519433
8.288734779497e-10	-0.1406061	0.72251225	0.5887698	-0.9978967	-0.041488174	0.027034834
8.332928693089711e-10	-0.12601817	0.6976056	0.62023443	-0.9978778	-0.040980022	0.02721115
8.377451367944829e-10	-0.1080105	0.6718145	0.65056604	-0.9978582	-0.040645096	0.02700794
8.420709340639896e-10	-0.08770469	0.6459338	0.6786435	-0.9978414	-0.04053897	0.026427113
8.463160941218799e-10	-0.065444134	0.61958647	0.70478684	-0.99782914	-0.040689465	0.02548719
8.505021225088567e-10	-0.041578066	0.59252423	0.7291237	-0.997822	-0.041122068	0.024216244
8.546478207254531e-10	-0.016409485	0.5645091	0.751742	-0.9978191	-0.041856844	0.022653023
8.587695016173067e-10	0.009784237	0.5353174	0.7726948	-0.99781847	-0.042907387	0.02084762
8.628835358549493e-10	0.036751375	0.5047252	0.7920135	-0.99781674	-0.04428065	0.018860579
8.67006292042392e-10	0.06425385	0.47251034	0.809707	-0.99780995	-0.0459767	0.016762739
8.71155663519094e-10	0.09206676	0.43844166	0.8257632	-0.997794	-0.047989246	0.01463477
8.753532336855139e-10	0.1199822	0.40225983	0.84015274	-0.9977646	-0.050306737	0.012566961
8.7962639491487e-10	0.14780986	0.36365455	0.85282123	-0.99771816	-0.05291331	0.010660463
8.840070821570866e-10	0.17535007	0.32227236	0.8636708	-0.99765176	-0.05578615	0.009031472
8.882798471719626e-10	0.20091121	0.28024548	0.87211233	-0.99756813	-0.058715466	0.0078679025
8.924678941908627e-10	0.22442934	0.23759343	0.8782898	-0.9974691	-0.0616331	0.0072226697
8.965891344433553e-10	0.24584958	0.19437988	0.8823094	-0.9973569	-0.06446802	0.0071262815
9.006671338390869e-10	0.26517463	0.15060103	0.8842545	-0.99723417	-0.0671524	0.0075830724
9.047262060017065e-10	0.28242207	0.10623515	0.8841733	-0.9971037	-0.06961718	0.0085702455
9.087897243754413e-10	0.29760948	0.0612664	0.8820776	-0.9969694	-0.07179176	0.010033799
9.128757007695573e-10	0.3107405	0.015742041	0.8779522	-0.99683744	-0.073606014	0.011882382
9.169964159956215e-10	0.32181776	-0.030215941	0.87176853	-0.99671537	-0.07499942	0.013984571
9.21143801674553e-10	0.330833	-0.07624657	0.8635316	-0.9966132	-0.07593095	0.016165966
9.252877336586389e-10	0.33781728	-0.1217453	0.8533341	-0.99654007	-0.076398514	0.018225856
9.294098311147422e-10	0.34292	-0.16626024	0.8412974	-0.9965015	-0.07644996	0.019984346
9.335233632371107e-10	0.34638214	-0.20970687	0.8274689	-0.9964989	-0.076165706	0.021309117
9.376437660886658e-10	0.34845963	-0.252033	0.81186825	-0.9965294	-0.07563982	0.022104258
9.417802840527235e-10	0.3494216	-0.2931286	0.79452044	-0.99658746	-0.0749715	0.022309193
9.459607389575327e-10	0.34955877	-0.33306423	0.7753502	-0.99666524	-0.074253105	0.02189616
9.502080996871927e-10	0.34918046	-0.37183747	0.7542686	-0.99675435	-0.07356854	0.02086033
9.545442808048998e-10	0.34863138	-0.40940544	0.73116374	-0.99684554	-0.07298994	0.019218998
9.589816266221992e-10	0.34830803	-0.44561043	0.7059553	-0.99692965	-0.07257554	0.01701566
9.635300805676041e-10	0.34866613	-0.48024824	0.6785683	-0.9969972	-0.07236495	0.014319128
9.681932281603433e-10	0.35022283	-0.5130388	0.6489658	-0.99704057	-0.07237717	0.011224712
9.729184008015997e-10	0.35350138	-0.5433304	0.6175004	-0.9970538	-0.07260677	0.00788828
9.775719907887402e-10	0.35884616	-0.5701423	0.58517224	-0.99703616	-0.073015325	0.0045394283
9.821746861148546e-10	0.36659393	-0.5935638	0.5519944	-0.99699116	-0.07356199	0.0012881416
9.867524842588076e-10	0.3770733	-0.6136294	0.5179144	-0.9969236	-0.07421265	-0.001778413
9.913260776461453e-10	0.3905976	-0.6302507	0.48289767	-0.9968392	-0.074939854	-0.0045873583
9.959074595827188e-10	0.40743968	-0.6432113	0.4469667	-0.99674344	-0.0757206	-0.0070815426
1.0005053817085976e-09	0.42782277	-0.65219706	0.4101708	-0.9966418	-0.07653422	-0.009229378
1.005125431405373e-09	0.45189825	-0.65679765	0.37259373	-0.9965391	-0.07735888	-0.011030543
1.0097289424354083e-09	0.47945446	-0.65654093	0.33470082	-0.9964401	-0.078161664	-0.012506624
1.0143105149647781e-09	0.51028466	-0.651016	0.296711	-0.9963477	-0.07891256	-0.013726447
1.01888156465884e-09	0.5441726	-0.63975877	0.25872216	-0.9962638	-0.079582684	-0.014780293
1.0234612478957194e-09	0.58085793	-0.62219924	0.22079141	-0.9961894	-0.08014446	-0.015762394
1.0280739146617035e-09	0.6200072	-0.5976288	0.18296905	-0.9961252	-0.08057268	-0.01675948
1.032733571350844e-09	0.66104174	-0.5652899	0.14544146	-0.99607104	-0.08084449	-0.017839441
1.0373980485373467e-09	0.7026694	-0.524923	0.10889105	-0.996027	-0.08094191	-0.01903204
1.0420640916838436e-09	0.743737	-0.47624475	0.073713444	-0.995992	-0.08085918	-0.020345792
1.0467550694030173e-09	0.7831515	-0.41883048	0.040147047	-0.9959653	-0.08059536	-0.021770349
1.0514421076237036e-09	0.81924254	-0.3531077	0.008837322	-0.9959466	-0.080156974	-0.023258306
1.0561385756784395e-09	0.8506237	-0.2792939	-0.019860992	-0.9959366	-0.07955261	-0.024760872
1.0608030722467161e-09	0.87559867	-0.19882745	-0.045282137	-0.99593705	-0.07880231	-0.02620682
1.0654748058873473e-09	0.89307463	-0.11214244	-0.06725306	-0.9959504	-0.07791761	-0.027552508
1.0700133087811934e-09	0.9017268	-0.023378797	-0.08489831	-0.9959778	-0.07694887	-0.028714672
1.0744708265820176e-09	0.90144116	0.06671451	-0.09839226	-0.9960203	-0.075911246	-0.029680481
1.078881894014094e-09	0.8921186	0.15715793	-0.10778453	-0.99607754	-0.07481811	-0.03043826
1.083279764420566e-09	0.8737318	0.24699798	-0.11307645	-0.9961489	-0.07367807	-0.030978778
1.0876981352374254e-09	0.84631467	0.33530247	-0.11421883	-0.9962332	-0.072494455	-0.031292398
1.092167595896484e-09	0.81	0.42105377	-0.11111142	-0.99632883	-0.07126651	-0.031366404
1.0967283822232663e-09	0.7649386	0.5033573	-0.103593186	-0.9964346	-0.06998674	-0.031183064
1.1014243487897866e-09	0.7113449	0.5812589	-0.09142372	-0.9965501	-0.06864413	-0.030716471
1.1061593079920528e-09	0.6514481	0.6516925	-0.07485007	-0.9966715	-0.06726902	-0.029958738
1.1108825582866408e-09	0.5875233	0.7131001	-0.054328706	-0.99679613	-0.06588362	-0.028917467
1.115597934119835e-09	0.52125955	0.76522124	-0.030234998	-0.99692315	-0.064499296	-0.027600816
1.1203248438283045e-09	0.45404744	0.8082328	-0.0028683594	-0.9970517	-0.063126974	-0.02601634
1.1250922695666186e-09	0.3870324	0.84251404	0.027563803	-0.9971811	-0.061777335	-0.024169018
1.1298993007052283e-09	0.3216741	0.86834395	0.060684428	-0.99731016	-0.060469598	-0.022076197
1.1345926808915184e-09	0.2611811	0.8857689	0.09496099	-0.9974335	-0.059257537	-0.019833606
1.139204451477679e-09	0.2058491	0.8961297	0.1301232	-0.99755144	-0.058135554	-0.017459394
1.143758164055427e-09	0.15589033	0.9005411	0.16593869	-0.9976645	-0.057094645	-0.014967109
1.1482773476093908e-09	0.111389935	0.8999445	0.20225057	-0.99777335	-0.05612107	-0.012363396
1.1527848588943533e-09	0.07236793	0.8951193	0.23895499	-0.9978784	-0.055197496	-0.009650065
1.1573043593666356e-09	0.038806602	0.8866973	0.27599725	-0.99797946	-0.054303452	-0.006824961
1.1618591387753695e-09	0.010690959	0.8751781	0.31334758	-0.9980758	-0.053416222	-0.003884402
1.1664708631519272e-09	-0.011969673	0.8609477	0.35097763	-0.9981658	-0.052511502	-0.00082599605
1.1711638672841173e-09	-0.029154766	0.8442772	0.38888317	-0.9982462	-0.05156302	0.0023519224
1.175867756720861e-09	-0.04063432	0.8257229	0.42630437	-0.9983123	-0.05056441	0.0055804686
1.1805767949592224e-09	-0.04662968	0.80557203	0.46302697	-0.9983611	-0.049500614	0.008826884
1.1852961051297701e-09	-0.04743542	0.7839752	0.4989341	-0.9983907	-0.048360154	0.012059004
1.1900248247900685e-09	-0.043374285	0.761022	0.5338705	-0.99840117	-0.047141045	0.015233315
1.1947569086685556e-09	-0.034819283	0.736756	0.56765246	-0.99839467	-0.04585297	0.01829604
1.1994780475728092e-09	-0.022218622	0.7112128	0.6000515	-0.9983751	-0.04451935	0.021183342
1.2041671105131815e-09	-0.0061112177	0.68443817	0.6308155	-0.99834865	-0.043176115	0.023826674
1.2088040268403677e-09	0.012903199	0.6564695	0.65972954	-0.99832153	-0.04186618	0.026162975
1.2133841803289458e-09	0.03426105	0.62725925	0.6866993	-0.9983004	-0.040630918	0.028145289
1.2178883457323096e-09	0.057329655	0.5968727	0.7115665	-0.99829036	-0.039514292	0.029731676
1.2222082213633678e-09	0.080974326	0.56607425	0.73377097	-0.9982951	-0.038572367	0.030877903
1.2263964500292437e-09	0.104945734	0.5345843	0.753669	-0.9983155	-0.03781252	0.031612094
1.2304833905401095e-09	0.1289854	0.50225264	0.7714585	-0.9983514	-0.037244175	0.03195421
1.2344949899873036e-09	0.15288143	0.46894822	0.787286	-0.99840164	-0.036875334	0.031922683
1.2384563051145238e-09	0.17646651	0.43453526	0.80126417	-0.99846315	-0.036712863	0.031534236
1.2423892622786087e-09	0.19958772	0.39889646	0.8134652	-0.9985328	-0.03676318	0.030803718
1.2463173971110189e-09	0.22212139	0.36189413	0.82393646	-0.9986058	-0.037032474	0.029743368
1.2502653874285556e-09	0.24395809	0.32337528	0.8326936	-0.9986771	-0.03752747	0.028362205
1.2542609261930507e-09	0.26500085	0.28315544	0.8397184	-0.9987407	-0.03825625	0.026665352
1.2583370712674103e-09	0.2851633	0.24099746	0.8449523	-0.99879056	-0.03922951	0.024653308
1.262536612577009e-09	0.3043716	0.19656974	0.84828246	-0.9988198	-0.04046274	0.022320732
1.2669082053089403e-09	0.32252282	0.14949656	0.8495134	-0.9988219	-0.04197595	0.019661803
1.271478589283796e-09	0.3393718	0.09968536	0.8483606	-0.9987902	-0.043780982	0.016696913
1.2759684308719548e-09	0.35375458	0.050481744	0.844812	-0.9987257	-0.045743644	0.013680995
1.280427223687929e-09	0.36592692	0.0016809087	0.838944	-0.9986318	-0.047844395	0.010677901
1.2847188343020744e-09	0.37573174	-0.044930443	0.83112633	-0.99851805	-0.049976964	0.007876453
1.2888557097065233e-09	0.3835274	-0.08926243	0.8216197	-0.9983916	-0.05210774	0.005351702
1.2929007940861828e-09	0.38972914	-0.13180998	0.81050205	-0.9982567	-0.054239143	0.00313517
1.2969001763365572e-09	0.39465678	-0.17289099	0.7977928	-0.9981163	-0.056372445	0.0012639785
1.3008906532355813e-09	0.39858222	-0.21271512	0.7834686	-0.997972	-0.058507036	-0.00022402522
1.3049057971179314e-09	0.40175933	-0.25143677	0.76746386	-0.99782485	-0.06063996	-0.001295227
1.3089755574079742e-09	0.40444136	-0.2891421	0.74968153	-0.9976754	-0.062762626	-0.0019240226
1.3131277084740814e-09	0.40689945	-0.32585517	0.72999793	-0.9975241	-0.06485934	-0.0020996023
1.317389572952049e-09	0.4094399	-0.3615443	0.7082594	-0.99737215	-0.06690739	-0.0018339641
1.321788053897918e-09	0.41242164	-0.39610982	0.6842864	-0.99722177	-0.068878345	-0.001170175
1.3260353603135216e-09	0.41597605	-0.42716494	0.6597456	-0.99708575	-0.07061996	-0.00026391656
1.3302050525869128e-09	0.42041332	-0.4553073	0.6344079	-0.9969637	-0.07216325	0.00075930054
1.334333416167884e-09	0.42600662	-0.48075944	0.6081869	-0.9968559	-0.0735293	0.0017851616
1.3384537188156845e-09	0.43303093	-0.5036429	0.5809715	-0.9967618	-0.07474329	0.0027150316
1.3425988626814724e-09	0.44178057	-0.5239856	0.55261946	-0.9966795	-0.075832576	0.0034658248
1.3467997207687303e-09	0.45257673	-0.54170036	0.5229779	-0.9966065	-0.076823145	0.003968421
1.3510902605431062e-09	0.46578807	-0.55658764	0.4918559	-0.9965401	-0.07773774	0.004167359
1.3555053302403893e-09	0.48183393	-0.5682927	0.45904803	-0.9964778	-0.07859227	0.0040200534
1.3600768987907523e-09	0.50116557	-0.5762617	0.42437518	-0.9964175	-0.07939297	0.003498976
1.3648279546286555e-09	0.5242082	-0.57971203	0.38775003	-0.99635917	-0.08013435	0.002597447
1.369689052088308e-09	0.55081314	-0.57772225	0.34985536	-0.9963042	-0.080789745	0.0013586829
1.3745503810174553e-09	0.58026123	-0.56968653	0.31176645	-0.99625516	-0.081329525	-0.00012322089
1.3793904630849485e-09	0.6120329	-0.55520964	0.27391344	-0.9962135	-0.08174041	-0.0017647672
1.3842164272723777e-09	0.64562	-0.5338925	0.23652634	-0.99618024	-0.08201467	-0.003503584
1.389040007478712e-09	0.6804036	-0.50532067	0.19982605	-0.99615556	-0.082146294	-0.00529719
1.393871077659392e-09	0.71560305	-0.46911293	0.16408011	-0.9961395	-0.08212986	-0.007118482
1.3986988708932838e-09	0.7501372	-0.42515883	0.12973638	-0.9961317	-0.081960686	-0.008942028
1.403515173501388e-09	0.78282803	-0.3735615	0.09723274	-0.99613094	-0.081635594	-0.010744247
1.4083159739465205e-09	0.81246626	-0.31463453	0.06697757	-0.9961362	-0.081152424	-0.0124956565
1.4131187181796659e-09	0.8379458	-0.24864466	0.03925048	-0.99614674	-0.08050815	-0.014160519
1.4179040448444648e-09	0.8579969	-0.17659909	0.0145385	-0.9961634	-0.07970849	-0.015674291
1.4226975055787684e-09	0.871654	-0.09910116	-0.00693292	-0.9961877	-0.078759134	-0.01697439
1.4274119437191435e-09	0.8779204	-0.0188532	-0.024525456	-0.99622136	-0.0776987	-0.017968966
1.4320146964230272e-09	0.87655735	0.062053718	-0.038070973	-0.9962659	-0.076566994	-0.018605879
1.4365658818459548e-09	0.86759305	0.14318416	-0.047744423	-0.99632263	-0.07538322	-0.018867077
1.441106834495098e-09	0.8510299	0.2238658	-0.05357869	-0.9963922	-0.074167475	-0.018739851
1.4456605628752732e-09	0.826984	0.30312935	-0.055533785	-0.9964741	-0.07294062	-0.018221525
1.4502353471862073e-09	0.79580885	0.37978202	-0.053570464	-0.9965668	-0.071722545	-0.017321954
1.4548338165286907e-09	0.7581184	0.4526233	-0.04769908	-0.99666804	-0.0705294	-0.016060397
1.459431165026074e-09	0.715013	0.52021074	-0.03805734	-0.9967745	-0.0693799	-0.014468874
1.4640219397615015e-09	0.6676502	0.5816859	-0.02485825	-0.99688315	-0.0682851	-0.012574382
1.4686129329636996e-09	0.6171485	0.6366053	-0.0083283335	-0.996991	-0.067253314	-0.010392998
1.4732059673804104e-09	0.5646925	0.6846837	0.011268415	-0.9970944	-0.066295825	-0.007936875
1.477804160077602e-09	0.5114231	0.7258625	0.033656947	-0.9971897	-0.06542496	-0.0052155014
1.4824034322910555e-09	0.45849347	0.7602152	0.05851624	-0.9972727	-0.06465351	-0.0022455829