# t (s)	mx ()	my ()	mz ()	m.region1x ()	m.region1y ()	m.region1z ()
0	0	1	0	0	1	0
1.023e-12	-0.01773857	0.99978936	0.009982808	-0.06729547	0.9976694	0.011272684
2.047e-12	-0.035126206	0.9991682	0.020035818	-0.13364775	0.99074197	0.023805335
4.095e-12	-0.06876135	0.99676484	0.040301412	-0.26108444	0.96390086	0.051962376
8.191e-12	-0.13127713	0.9877988	0.08132591	-0.48288894	0.86779946	0.115453176
1.3181247246319962e-11	-0.19851962	0.9706886	0.13182457	-0.67819625	0.7078163	0.19224067
1.821638085890655e-11	-0.2562373	0.9482436	0.18289517	-0.79792243	0.54045576	0.25669602
2.3451420486564095e-11	-0.30556607	0.9211093	0.23567836	-0.864302	0.38749805	0.3051881
2.9024233123355423e-11	-0.3465433	0.8896279	0.29110217	-0.8974717	0.25757346	0.3375288
3.495551550124237e-11	-0.37785235	0.85473055	0.34883988	-0.9126103	0.15321617	0.35448274
4.110385184868861e-11	-0.39795765	0.8183236	0.40699577	-0.92010593	0.07257212	0.3580471
4.7333718313266456e-11	-0.40670556	0.78207093	0.46389967	-0.92543745	0.009583566	0.35171923
5.359684662250231e-11	-0.4049428	0.7467213	0.51885504	-0.93018323	-0.04219533	0.33927795
5.991494102629601e-11	-0.3936597	0.7122464	0.57184863	-0.9340711	-0.087166876	0.32388574
6.632850185172954e-11	-0.37364018	0.678217	0.62299734	-0.9364646	-0.12740667	0.30784652
7.287469962840507e-11	-0.34550303	0.64396346	0.67231977	-0.93706083	-0.16343251	0.29257357
7.95717654143747e-11	-0.30988935	0.6086659	0.7196102	-0.936065	-0.19504654	0.27864027
8.636297680666572e-11	-0.26799357	0.571688	0.7641076	-0.93407804	-0.22186701	0.26599962
9.321011739896498e-11	-0.22118913	0.5321989	0.80522376	-0.9317867	-0.24419661	0.25406227
1.0012886561785477e-10	-0.17065755	0.48905498	0.84268427	-0.92966336	-0.26299918	0.24203594
1.071488604332962e-10	-0.11759361	0.44104865	0.8761929	-0.9278777	-0.279443	0.22928727
1.1424540299433527e-10	-0.06375947	0.38747692	0.9051278	-0.92635363	-0.29448238	0.21560347
1.214033488293077e-10	-0.010976674	0.32788363	0.9289408	-0.9248745	-0.30880252	0.20107798
1.2861869167734208e-10	0.03898103	0.26210803	0.94715697	-0.92323375	-0.32271567	0.18596709
1.3592233697613313e-10	0.084617026	0.19005926	0.9593911	-0.921325	-0.33626962	0.17046118
1.4336989932258293e-10	0.12462621	0.111741096	0.9652173	-0.9191558	-0.34937313	0.15457569
1.5086752739166944e-10	0.15719415	0.029179294	0.9641788	-0.91685635	-0.36166272	0.1384781
1.584175998355134e-10	0.18161379	-0.0561815	0.95613223	-0.9145338	-0.37306085	0.12200487
1.66077656954581e-10	0.19782522	-0.14331365	0.94092023	-0.9122178	-0.38368884	0.10483754
1.7383429779479352e-10	0.20611385	-0.23028389	0.9185469	-0.9098789	-0.39364216	0.08687824
1.8156047759612756e-10	0.20749481	-0.31400496	0.8896635	-0.90746355	-0.40290976	0.06844158
1.89355576863866e-10	0.20370412	-0.39414716	0.8543081	-0.9048381	-0.41172233	0.049443677
1.9710194216065788e-10	0.19689307	-0.46845263	0.81349015	-0.9019745	-0.4199927	0.030390128
2.0474759149472362e-10	0.18945941	-0.5358994	0.7681422	-0.89888173	-0.42767644	0.011610131
2.1238018100962842e-10	0.18363915	-0.59698516	0.7183254	-0.89554626	-0.43485525	-0.0069980733
2.1998530897174546e-10	0.18168409	-0.65139323	0.6645945	-0.8919973	-0.44152215	-0.02538739
2.275222975181585e-10	0.18564375	-0.6987247	0.60768765	-0.88825464	-0.4476911	-0.043529347
2.350009910414381e-10	0.19728506	-0.7388592	0.54795086	-0.8842802	-0.45345783	-0.06155302
2.42370153967838e-10	0.21790765	-0.77115905	0.48620248	-0.8800416	-0.45888826	-0.079430014
2.496603517687163e-10	0.2485654	-0.79509175	0.4225972	-0.8754549	-0.46410063	-0.09729564
2.5690219776032695e-10	0.29005083	-0.8095883	0.35727608	-0.8704408	-0.469179	-0.11525606
2.640840328311058e-10	0.34248313	-0.81297636	0.2908202	-0.86496896	-0.47413406	-0.133299
2.7122344041925953e-10	0.40553045	-0.8031753	0.22366446	-0.8590133	-0.47895053	-0.15148856
2.7828654465461734e-10	0.47757304	-0.7778851	0.15688841	-0.8526146	-0.48353684	-0.1697694
2.8533487671714143e-10	0.5569727	-0.73432916	0.09086785	-0.8457446	-0.48782384	-0.18834047
2.924389715019944e-10	0.64123666	-0.6691247	0.026170712	-0.8383716	-0.49169388	-0.2074281
2.9942091713732446e-10	0.7236109	-0.5820393	-0.03414944	-0.83075905	-0.49485055	-0.22655682
3.063880737808346e-10	0.79964566	-0.47138867	-0.08944142	-0.82292557	-0.49709448	-0.24597068
3.134942462704722e-10	0.864058	-0.33481315	-0.13890006	-0.8149004	-0.4980949	-0.26600552
3.2052222744176503e-10	0.90772617	-0.17917173	-0.1789974	-0.8072381	-0.49735942	-0.28588042
3.275895796103993e-10	0.925256	-0.007553274	-0.20866682	-0.8002412	-0.4943517	-0.30566558
3.3462586015552115e-10	0.91201216	0.17062874	-0.22612438	-0.79453546	-0.48849607	-0.32477754
3.4149959915146757e-10	0.8679101	0.34296256	-0.23062296	-0.79081535	-0.47943053	-0.34233466
3.4828993794349043e-10	0.79554117	0.50287104	-0.22259639	-0.78962296	-0.4667344	-0.35783172
3.551098747813373e-10	0.69828385	0.64551806	-0.20240067	-0.7915883	-0.44993505	-0.3704958
3.619996929605974e-10	0.5815607	0.7655766	-0.17058858	-0.79737073	-0.42885795	-0.37897
3.688635531676762e-10	0.45459488	0.8579481	-0.12890671	-0.8072262	-0.40422145	-0.3815391
3.756251364334587e-10	0.3267816	0.921852	-0.07976819	-0.8207806	-0.377337	-0.3768913
3.823715045982375e-10	0.20331745	0.9604961	-0.024513226	-0.837424	-0.34923732	-0.36413968
3.8923109658201045e-10	0.08747872	0.9773699	0.036269523	-0.8563325	-0.32087702	-0.34259108
3.9628025743657464e-10	-0.017233796	0.975585	0.10182502	-0.87625265	-0.29344162	-0.31217775
4.0330505632142617e-10	-0.10466038	0.9592474	0.16873133	-0.8950033	-0.2689414	-0.2753292
4.1035957313718547e-10	-0.1744583	0.93265414	0.23621826	-0.9114805	-0.24780698	-0.23437053
4.1754141986144384e-10	-0.22714147	0.89895755	0.30418074	-0.9251118	-0.23004703	-0.19175442
4.247393069017139e-10	-0.26230243	0.86150354	0.3707321	-0.93543243	-0.21600068	-0.15140323
4.319078424340723e-10	-0.2811941	0.8226243	0.43485767	-0.9426591	-0.20573753	-0.11659813
4.3905737691946917e-10	-0.2856352	0.7835015	0.49623504	-0.9473038	-0.19948111	-0.0896825
4.4615597794350913e-10	-0.27747518	0.74481267	0.5543015	-0.94979686	-0.1978692	-0.07221588
4.532235857928605e-10	-0.25852323	0.706387	0.609006	-0.95033836	-0.20177932	-0.06441669
4.602783434009928e-10	-0.23039177	0.6676581	0.660278	-0.94877243	-0.21211906	-0.065369315
4.673524800220435e-10	-0.19447643	0.62769854	0.7081033	-0.9446678	-0.2294668	-0.073129766
4.744995010485723e-10	-0.15192485	0.58525187	0.7525047	-0.93750983	-0.25382236	-0.08503803
4.816036716052656e-10	-0.10498778	0.5400116	0.79244304	-0.927268	-0.28365168	-0.097705014
4.8860502961584e-10	-0.05581149	0.49156046	0.82739544	-0.9145293	-0.31665626	-0.107945256
4.955608054427787e-10	-0.0057031703	0.4389132	0.85746217	-0.900256	-0.35075846	-0.11331418
5.025618288294182e-10	0.044347577	0.38091353	0.8827062	-0.8857396	-0.38402262	-0.11184269
5.096520095136325e-10	0.09298366	0.3168893	0.90281636	-0.87267846	-0.4141624	-0.10203111
5.166727074190848e-10	0.13756192	0.24844551	0.9170346	-0.8631198	-0.43805015	-0.0839738
5.236330281462675e-10	0.17691521	0.17618039	0.92531526	-0.8583188	-0.45361757	-0.05950004
5.305885476056379e-10	0.21039796	0.100442365	0.9276634	-0.85890394	-0.45940015	-0.032188825
5.374691010196159e-10	0.23711792	0.023151781	0.92410386	-0.8647072	-0.4550905	-0.007737418
5.440883831548623e-10	0.25657684	-0.052263647	0.9151941	-0.8742717	-0.44295847	0.0078527
5.502145951718322e-10	0.26924536	-0.12195977	0.9022528	-0.8850727	-0.4275725	0.011586138
5.560824015249693e-10	0.27692008	-0.18776082	0.88576	-0.8953471	-0.41239667	0.004042245
5.618360777516709e-10	0.28073215	-0.2506472	0.8658546	-0.9035279	-0.40011033	-0.013321675
5.675542869251192e-10	0.28153992	-0.31092465	0.84258896	-0.90826875	-0.39261284	-0.038170636
5.732420712614613e-10	0.28016675	-0.36817327	0.8161955	-0.9086728	-0.39085758	-0.0672913
5.788116237740718e-10	0.2775414	-0.42121795	0.7874021	-0.9046585	-0.3946618	-0.09682977
5.843041629231248e-10	0.27454954	-0.47031146	0.7563373	-0.8968253	-0.4031403	-0.12407889
5.897549964174919e-10	0.27201998	-0.51565164	0.7230673	-0.88612145	-0.41529182	-0.14696
5.950854673400104e-10	0.2707635	-0.556568	0.68834674	-0.8739605	-0.429806	-0.16369312
6.002720681601881e-10	0.27141914	-0.592998	0.65263903	-0.86170673	-0.44542727	-0.1737132
6.053569181525187e-10	0.2745085	-0.6253496	0.61592543	-0.85041547	-0.4610877	-0.17736894
6.103583605903615e-10	0.28048563	-0.65378296	0.5782913	-0.84100294	-0.47561443	-0.17556955
6.152923275725224e-10	0.289742	-0.6783713	0.5398042	-0.8341734	-0.48783755	-0.16981961
6.201414491137115e-10	0.3025181	-0.6989751	0.5007768	-0.83037156	-0.4967145	-0.16216743
6.248862105905362e-10	0.31889248	-0.71545744	0.46154884	-0.8295975	-0.5017013	-0.15491493
6.295723807284897e-10	0.33908433	-0.7278499	0.42191055	-0.8313945	-0.5029143	-0.15012147
6.342321710492416e-10	0.36329693	-0.73596495	0.3817377	-0.83494836	-0.50094956	-0.14946455
6.388886173599884e-10	0.39168894	-0.73943543	0.3409775	-0.8391466	-0.49681628	-0.15398057
6.435577779536401e-10	0.42433935	-0.73773867	0.29964676	-0.8427553	-0.4917481	-0.16386701
6.481972253500689e-10	0.46076813	-0.73033786	0.2583065	-0.8446663	-0.4869903	-0.17826585
6.52806053017202e-10	0.50058544	-0.716725	0.217179	-0.844251	-0.48341414	-0.19571126
6.573585150487325e-10	0.54300845	-0.6965229	0.17673069	-0.841427	-0.4814478	-0.21442656
6.618825870268137e-10	0.5875904	-0.6691808	0.136972	-0.83653593	-0.48107496	-0.23303916
6.664047510943663e-10	0.6337678	-0.6340401	0.097963296	-0.8301554	-0.4820082	-0.250584
6.709380651951375e-10	0.6806877	-0.590482	0.059929308	-0.82298046	-0.48376927	-0.2665097
6.754709766771866e-10	0.7270542	-0.53822434	0.023342185	-0.8157323	-0.48574114	-0.2806485
6.799767453239825e-10	0.7712662	-0.4774768	-0.011196256	-0.80903786	-0.48724556	-0.2932006
6.844383496476247e-10	0.81177104	-0.40873426	-0.043184828	-0.80331355	-0.48765245	-0.3046589
6.888647813452781e-10	0.8472667	-0.33241186	-0.07232918	-0.7987383	-0.4864472	-0.31564954
6.93286670210826e-10	0.8765976	-0.24871188	-0.09845171	-0.79531413	-0.48322925	-0.32676238
6.977382799005161e-10	0.8985276	-0.15786728	-0.121324316	-0.79294986	-0.47769356	-0.33841524
7.022013178986656e-10	0.9115894	-0.061432477	-0.14042515	-0.7915295	-0.46972886	-0.35063842
7.066776099354366e-10	0.9146727	0.039099824	-0.15539144	-0.7909234	-0.4593595	-0.36322546
7.111164937898681e-10	0.90711373	0.14077105	-0.16581309	-0.7910636	-0.44688967	-0.3755664
7.15509732681083e-10	0.8889016	0.2414429	-0.17159759	-0.7919629	-0.43265072	-0.38701996
7.198852645229165e-10	0.86023337	0.3398422	-0.17276576	-0.7937458	-0.4168817	-0.3969933
7.242419556862997e-10	0.821723	0.4341276	-0.1693461	-0.7966079	-0.39990413	-0.40484563
7.285907413895845e-10	0.77420336	0.5228836	-0.16142777	-0.80078125	-0.38196933	-0.41003832
7.329536099488864e-10	0.7185749	0.6050775	-0.14909825	-0.8065071	-0.36324093	-0.4121113
7.37250077331887e-10	0.65737987	0.67816013	-0.13286956	-0.813803	-0.34430397	-0.4107066
7.414596669771693e-10	0.5927148	0.7413985	-0.113291316	-0.8226002	-0.32548478	-0.4057306
7.456113068601133e-10	0.5258479	0.795187	-0.09070666	-0.8328187	-0.3068844	-0.3971289
7.497547381081159e-10	0.45749637	0.84019727	-0.06523923	-0.8443739	-0.28852642	-0.38475862
7.539371996382459e-10	0.3882685	0.8769267	-0.036907624	-0.85712737	-0.27048957	-0.36840358
7.581750335541986e-10	0.31922814	0.90554166	-0.0058759516	-0.87077075	-0.25304064	-0.34796342
7.624086450788208e-10	0.2525761	0.92600256	0.027091783	-0.8846591	-0.23676057	-0.3239071
7.665923509874936e-10	0.19000342	0.9388991	0.06124733	-0.8981597	-0.222077	-0.29696998
7.70742359685823e-10	0.13198085	0.9452339	0.096345365	-0.91089314	-0.20908518	-0.26767793
7.748694784601053e-10	0.07889348	0.9459244	0.13214938	-0.9225438	-0.19781625	-0.23663683
7.790002361450051e-10	0.030816376	0.94179106	0.16860601	-0.93292594	-0.18818493	-0.20434959
7.831495755148677e-10	-0.012085627	0.93354225	0.205599	-0.9419015	-0.18008006	-0.17140698
7.873286099758948e-10	-0.049668822	0.92181396	0.24300328	-0.9494054	-0.17334926	-0.13843136
7.914909862065596e-10	-0.08144474	0.9073846	0.28020006	-0.9553755	-0.16787939	-0.10647551
7.956242408515416e-10	-0.10746357	0.89092016	0.31690118	-0.95992166	-0.1634716	-0.07625117
7.997398879439645e-10	-0.1280191	0.8728965	0.35305953	-0.96323484	-0.15993132	-0.04821806
8.038554265540908e-10	-0.14341812	0.8536445	0.38869837	-0.9655261	-0.15712593	-0.02275373
8.079863249193353e-10	-0.1539188	0.8333989	0.42383274	-0.9670052	-0.1550067	-0.00022629897
8.121409511046811e-10	-0.15973471	0.8123416	0.45842248	-0.96786994	-0.15361905	0.018986154
8.163228779578204e-10	-0.16107172	0.7906041	0.49239293	-0.96829844	-0.15310349	0.034541104
8.205333695045735e-10	-0.15814713	0.76826316	0.5256556	-0.96843356	-0.15369199	0.046178248
8.247758936881293e-10	-0.15118846	0.74532187	0.55814207	-0.96836567	-0.15569878	0.053760592
8.290506972982709e-10	-0.14043848	0.72174454	0.5897581	-0.9681177	-0.15949903	0.057286937
8.333437535042229e-10	-0.12620957	0.69752717	0.6203085	-0.96763825	-0.16547094	0.056934446
8.376599483170604e-10	-0.10878834	0.6725206	0.64973724	-0.9668002	-0.17398162	0.053084683
8.420057110559462e-10	-0.088455185	0.64652985	0.6779881	-0.96541137	-0.18533641	0.04627925
8.463885741926569e-10	-0.06548847	0.6193218	0.7049981	-0.9632342	-0.1997295	0.037206646
8.508053281830375e-10	-0.040239867	0.5907094	0.73062694	-0.96002704	-0.21714978	0.026707893
8.552528530754781e-10	-0.013093067	0.5605012	0.75473446	-0.9555871	-0.23736818	0.015716132
8.597220921759378e-10	0.015499175	0.52855855	0.777153	-0.94980365	-0.25990558	0.0052055097
8.642077057697582e-10	0.045078833	0.49474663	0.79774404	-0.9426877	-0.2841064	-0.0039019485
8.687144217933375e-10	0.0752379	0.4588875	0.8164175	-0.9343712	-0.30923668	-0.010796617
8.732472479100441e-10	0.10556086	0.42083448	0.8330764	-0.92511874	-0.3344848	-0.0147831
8.77806530180679e-10	0.13559458	0.380524	0.8476018	-0.9153256	-0.35896838	-0.015305855
8.823732240566587e-10	0.16476606	0.3381336	0.8598299	-0.9055271	-0.38169542	-0.012022431
8.869505976519921e-10	0.19267265	0.29371345	0.86968505	-0.89626914	-0.40181777	-0.0048608356
8.915407558671975e-10	0.21893446	0.24738228	0.87709236	-0.8881205	-0.4185209	0.0059377723
8.961497910381626e-10	0.24323227	0.19927377	0.8819876	-0.8816293	-0.4310832	0.019756809
9.007776507011232e-10	0.26526183	0.14963798	0.8843063	-0.8772979	-0.43892446	0.03551952
9.05410636159887e-10	0.28473097	0.09892707	0.88400656	-0.87551004	-0.44175935	0.051655997
9.100548411492574e-10	0.3015213	0.047421116	0.8810787	-0.8764307	-0.4397733	0.066341236
9.147103909993832e-10	0.3155671	-0.004508978	0.8755284	-0.879955	-0.4336642	0.07763004
9.193833928466464e-10	0.32690188	-0.056543246	0.8673694	-0.8856533	-0.42464066	0.08378314
9.24042520356588e-10	0.33557308	-0.10794532	0.8567169	-0.8927083	-0.41437992	0.0835717
9.286991548694102e-10	0.34182298	-0.15847121	0.8436372	-0.9001134	-0.40458822	0.07660109
9.333613121157423e-10	0.34594086	-0.20785916	0.8281975	-0.90678453	-0.3967872	0.06323225
9.380260254854908e-10	0.34826362	-0.255758	0.81050277	-0.9117179	-0.3921019	0.044532668
9.42673609294179e-10	0.34918553	-0.3016942	0.79074496	-0.9141653	-0.391113	0.022140546
9.473151037869105e-10	0.34915298	-0.345551	0.7690021	-0.913764	-0.39385906	-0.0022352033
9.519586722910648e-10	0.34862906	-0.38720524	0.74534756	-0.9104908	-0.40002632	-0.0269118
9.566099513728072e-10	0.3480918	-0.42652884	0.719855	-0.90462685	-0.40908536	-0.050347786
9.612654004201694e-10	0.34802994	-0.46333584	0.6926437	-0.8967085	-0.42038235	-0.071186684
9.65885241340699e-10	0.34891763	-0.49720958	0.6640665	-0.8875167	-0.43310896	-0.08825346
9.704836677379414e-10	0.35119927	-0.5281842	0.6341656	-0.87780905	-0.44656858	-0.10099431
9.75071452016421e-10	0.35529965	-0.55624026	0.6029855	-0.86833525	-0.46003368	-0.109204255
9.796542254343895e-10	0.36161774	-0.581294	0.5705952	-0.8598075	-0.47270992	-0.113083206
9.842250097352695e-10	0.37049702	-0.6031684	0.5371532	-0.852866	-0.483745	-0.11330074
9.887784010993936e-10	0.38222003	-0.6216821	0.502815	-0.8479808	-0.49237838	-0.11101224
9.933168720370424e-10	0.39702561	-0.63665533	0.46768212	-0.8453741	-0.49809623	-0.10773152
9.978369622352677e-10	0.41506702	-0.6478465	0.43190652	-0.844968	-0.5007413	-0.10512769
1.0023336291820752e-09	0.4364037	-0.65497935	0.39566097	-0.84634715	-0.5005972	-0.104743384
1.0068116557486582e-09	0.46105272	-0.65775466	0.35904813	-0.84881467	-0.498336	-0.10771757
1.0112785547069317e-09	0.4889693	-0.6558119	0.32215667	-0.8515188	-0.4948596	-0.11461935
1.0157426683277158e-09	0.5200312	-0.6487209	0.2850814	-0.8536074	-0.4911135	-0.12540095
1.0202069174850958e-09	0.5539766	-0.6360031	0.24798158	-0.85437727	-0.4879221	-0.13945334
1.0246703198954552e-09	0.5903839	-0.6171718	0.21107394	-0.8533929	-0.4858671	-0.15576796
1.029127611032063e-09	0.6286477	-0.5917859	0.17463781	-0.8505413	-0.48523346	-0.1731552
1.03356074013499e-09	0.66789263	-0.55958503	0.13908015	-0.84602755	-0.48601553	-0.1904365
1.0379762412573904e-09	0.7073191	-0.52027154	0.10462918	-0.8402588	-0.48797843	-0.20677263
1.0423776444763434e-09	0.7459837	-0.47366124	0.07156184	-0.83375555	-0.4907391	-0.22164495
1.0467634785655464e-09	0.78279996	-0.4197687	0.040211394	-0.82706577	-0.4938244	-0.23487155
1.0511316499700014e-09	0.8166127	-0.35881576	0.010922868	-0.8206788	-0.4967316	-0.24659233
1.055488582283081e-09	0.8463072	-0.29111204	-0.016012456	-0.81495285	-0.49898717	-0.25721112
1.0598524451440467e-09	0.87082636	-0.21695039	-0.040358547	-0.8100877	-0.5001809	-0.26728806
1.064244327670455e-09	0.8890909	-0.13671811	-0.061858617	-0.80614305	-0.49997258	-0.2774088
1.0686714161461098e-09	0.89996976	-0.051250294	-0.080159344	-0.8030736	-0.49810252	-0.28804985
1.0730622602199657e-09	0.90247655	0.03677149	-0.0946842	-0.800787	-0.4944832	-0.2993139
1.0774259388606631e-09	0.89625216	0.12600847	-0.105313465	-0.7991039	-0.48911968	-0.31125534
1.0817661399444844e-09	0.8812038	0.2149756	-0.11195664	-0.7978944	-0.4820784	-0.32369933
1.0860723488756478e-09	0.8576191	0.30192357	-0.11457673	-0.79711205	-0.47348782	-0.336262
1.0903436263500678e-09	0.8260861	0.38541266	-0.11323706	-0.796797	-0.4634798	-0.34848675
1.0946017469254791e-09	0.78722703	0.4645933	-0.10803126	-0.7970726	-0.45211878	-0.35994396
1.0988570643946871e-09	0.7418657	0.5385334	-0.09906418	-0.79813004	-0.43946683	-0.3701682
1.103078310318332e-09	0.691463	0.6058341	-0.08660085	-0.800173	-0.42570674	-0.37863922
1.1072851181256007e-09	0.63702756	0.66622996	-0.07084151	-0.80340815	-0.41086766	-0.3850141
1.1114771705713924e-09	0.57980555	0.7193457	-0.052056	-0.8079969	-0.39504835	-0.38895428
1.1156484365732803e-09	0.52110744	0.7649849	-0.030570861	-0.81402224	-0.3784001	-0.39017305
1.119807235159934e-09	0.46197662	0.80331993	-0.006653998	-0.8215008	-0.36106038	-0.38843784
1.123975275998376e-09	0.40317035	0.83473074	0.019528098	-0.83039874	-0.34315503	-0.38352254
1.1281745508464618e-09	0.34536284	0.85960037	0.04784969	-0.840617	-0.32485804	-0.3751936
1.132411895906938e-09	0.28937253	0.87824374	0.078104965	-0.85194606	-0.30646455	-0.36327425
1.136672979558021e-09	0.23619743	0.890991	0.109930836	-0.86403924	-0.2884039	-0.3477576
1.1409314653328e-09	0.18681037	0.89830804	0.14285536	-0.87645364	-0.27115607	-0.32887095
1.1451845939452966e-09	0.14171547	0.90081626	0.17658669	-0.88879824	-0.2550584	-0.30692354
1.1494387608940594e-09	0.10119194	0.89913213	0.21092796	-0.9007322	-0.24034803	-0.28229213
1.1537134988244399e-09	0.06532729	0.8938015	0.24581563	-0.9119927	-0.22714774	-0.2553465
1.1579925874258838e-09	0.034435168	0.88535786	0.28091595	-0.9222786	-0.21560769	-0.22674133
1.16227947150436e-09	0.008556611	0.8742733	0.31607297	-0.9314135	-0.20572066	-0.19705726
1.1665699389349758e-09	-0.01229585	0.8609761	0.35108513	-0.939276	-0.19741893	-0.16694237
1.1708656784679735e-09	-0.02821311	0.8458133	0.38581377	-0.9458268	-0.19055994	-0.13699993
1.175176577862149e-09	-0.039349526	0.82902575	0.42019704	-0.9510949	-0.18495692	-0.107762195
1.1795119426429578e-09	-0.045862105	0.8107768	0.4541725	-0.95515233	-0.18042105	-0.079755
1.1838685124564462e-09	-0.04791104	0.791213	0.48758328	-0.9581027	-0.17679177	-0.05357041
1.1882335894411851e-09	-0.0457155	0.77047044	0.52020967	-0.9600889	-0.17394798	-0.029813418
1.1926123748424426e-09	-0.039538167	0.74855083	0.55197525	-0.9612925	-0.17181516	-0.008931144
1.197010875961976e-09	-0.029646333	0.7253973	0.5828072	-0.96190023	-0.17040493	0.008680983
1.2014369481649358e-09	-0.016306901	0.70089555	0.6126393	-0.9620867	-0.16982953	0.022693738
1.20589394306159e-09	0.00019051437	0.6749169	0.64136535	-0.9619935	-0.17030811	0.03284354
1.210382308408174e-09	0.019521965	0.6473221	0.668853	-0.96171	-0.17215502	0.03897716
1.2149041450572934e-09	0.041342244	0.6179451	0.69497275	-0.96125275	-0.17575395	0.041088294
1.2194424031437192e-09	0.06517477	0.5867469	0.7194867	-0.96055716	-0.1814868	0.039343562
1.2239994385820157e-09	0.09060434	0.5535781	0.74227417	-0.95947295	-0.1897037	0.034098584
1.2285806149376703e-09	0.11721811	0.5182809	0.76322436	-0.9577797	-0.20066941	0.02584061
1.233186412615441e-09	0.14456272	0.48076022	0.78220093	-0.9552157	-0.21449924	0.015172004
1.237820210963415e-09	0.17219323	0.44093573	0.7990814	-0.95151407	-0.23114598	0.0027605768
1.2424859251714533e-09	0.19966683	0.39876735	0.8137459	-0.9464429	-0.25039437	-0.010699925
1.2471855475805984e-09	0.22653669	0.35428634	0.8260709	-0.939847	-0.2718699	-0.024516242
1.251920941311968e-09	0.25237426	0.30758643	0.8359387	-0.9316774	-0.29508188	-0.038022064
1.2566733598058876e-09	0.2766816	0.25903994	0.8432134	-0.922054	-0.31936294	-0.05053386
1.2614417681963632e-09	0.299122	0.20891675	0.84782726	-0.9112026	-0.34410915	-0.061463986
1.2662222670554072e-09	0.3194178	0.15757138	0.8497299	-0.8994724	-0.36872336	-0.07025037
1.2710022928742582e-09	0.33734742	0.105497785	0.84890085	-0.88733023	-0.39260817	-0.07634937
1.2757935075108093e-09	0.3528729	0.052954886	0.845341	-0.875243	-0.41533577	-0.07928358
1.28059660795872e-09	0.36599326	0.0003344044	0.8390606	-0.86373407	-0.4364531	-0.07860854
1.2853764327243164e-09	0.37672195	-0.051580448	0.8301632	-0.8533899	-0.45538676	-0.074053794
1.2901357122289512e-09	0.3852768	-0.102443576	0.81874466	-0.8446354	-0.47175908	-0.06561189
1.2948843492253494e-09	0.3919465	-0.15201084	0.8048854	-0.8378002	-0.48521423	-0.05357988
1.2996315197019444e-09	0.39706257	-0.20005226	0.7886608	-0.833134	-0.49539638	-0.03864481
1.3043786280346853e-09	0.4009896	-0.2462828	0.7701708	-0.8308136	-0.5019912	-0.021951409
1.309120457791794e-09	0.40412673	-0.2903866	0.7495512	-0.8309253	-0.5048365	-0.005062634
1.3138515612882092e-09	0.40690124	-0.33208597	0.7269536	-0.8334343	-0.5040388	0.010217258
1.318569086882076e-09	0.4097535	-0.371163	0.70252645	-0.8381408	-0.50004303	0.022084644
1.323274240066023e-09	0.41312298	-0.40745854	0.67639863	-0.8446296	-0.4936371	0.028985962
1.3279702920467161e-09	0.417438	-0.44083878	0.6486828	-0.85223484	-0.48589024	0.02983123
1.3326576042686299e-09	0.42310357	-0.4711482	0.6195032	-0.86005574	-0.47802553	0.024168814
1.3373344663675224e-09	0.43049026	-0.4982141	0.5889962	-0.8670676	-0.47122526	0.012288724
1.3419996929763815e-09	0.4399274	-0.521857	0.5572959	-0.8723056	-0.4664224	-0.0048229955
1.3466505311550682e-09	0.45168874	-0.541873	0.52455115	-0.8750487	-0.46416804	-0.025658807
1.3512868443060485e-09	0.46599323	-0.55804765	0.49089843	-0.87494725	-0.46460867	-0.04846649
1.3559036817577343e-09	0.4829733	-0.570126	0.45651823	-0.8720524	-0.467568	-0.0714725
1.360492698574697e-09	0.50265694	-0.5778365	0.4216303	-0.8667726	-0.4726602	-0.093093134
1.3650561235352762e-09	0.5250209	-0.5809171	0.38638794	-0.8597463	-0.47941104	-0.11213702
1.3695954668407679e-09	0.5499489	-0.57907957	0.3509617	-0.8517292	-0.48730144	-0.12781282
1.3741135497292191e-09	0.57723534	-0.5720176	0.31552514	-0.8434973	-0.4957668	-0.13976987
1.3786126873326726e-09	0.6065695	-0.55941707	0.2802708	-0.83578056	-0.50417954	-0.14810558
1.3830941680303144e-09	0.6375262	-0.54097736	0.24541496	-0.82920855	-0.51186067	-0.15335828
1.3875594244777853e-09	0.6695707	-0.51643014	0.21118893	-0.82425386	-0.51814467	-0.15646078
1.392011357771153e-09	0.7020721	-0.48555163	0.17782904	-0.82117254	-0.52248067	-0.1586321
1.3964555562201263e-09	0.73431957	-0.44816527	0.14556888	-0.81995803	-0.5245313	-0.16121304
1.4008943976532115e-09	0.76548946	-0.40421093	0.114682615	-0.82032746	-0.5242314	-0.16546582
1.4052986576262821e-09	0.7944875	-0.35413808	0.085659295	-0.82174104	-0.52181643	-0.17231894
1.4096724062090086e-09	0.82045364	-0.2982728	0.058740675	-0.8235195	-0.5177365	-0.18227498
1.4140244410757988e-09	0.84257007	-0.2370122	0.034137562	-0.824989	-0.51251173	-0.19538681
1.4183677180070664e-09	0.8600628	-0.17080922	0.012041785	-0.8255903	-0.50662076	-0.21133427
1.4227139244636935e-09	0.8721882	-0.100247726	-0.0073400843	-0.8249474	-0.500433	-0.2295274
1.427068456709378e-09	0.87825906	-0.026141582	-0.023774834	-0.82290465	-0.49417827	-0.24921244
1.4314261658117904e-09	0.87772405	0.05037576	-0.03701763	-0.8195343	-0.4879415	-0.2695744
1.4357647883369096e-09	0.8703025	0.12774807	-0.04684763	-0.8151202	-0.48168126	-0.28981578
1.4400917883131643e-09	0.85595673	0.20489901	-0.05319553	-0.81004936	-0.47518846	-0.30945256
1.4444098804057175e-09	0.83485687	0.28068575	-0.056020796	-0.8047692	-0.46816662	-0.32816225
1.448682184570589e-09	0.807656	0.3533647	-0.05535137	-0.79977846	-0.46033677	-0.34561458
1.452902989354361e-09	0.77513146	0.42192242	-0.051343493	-0.7954877	-0.4513764	-0.3617266
1.457096998553364e-09	0.7379226	0.48600394	-0.0441513	-0.7922104	-0.44092658	-0.3765509
1.4612873076457826e-09	0.69666606	0.5453188	-0.03389723	-0.7902174	-0.42866102	-0.39006934
1.4654640482246757e-09	0.6523485	0.5992394	-0.020786837	-0.78974986	-0.41442323	-0.40206155
1.4696343744840047e-09	0.6058196	0.64755136	-0.0050087087	-0.79099196	-0.39812565	-0.4122564
1.4737838256139138e-09	0.5581608	0.6899645	0.013147437	-0.79407173	-0.37990913	-0.4202346
1.477902709014875e-09	0.51036346	0.7264584	0.033376098	-0.79904795	-0.36006537	-0.42555043
1.4820022338362447e-09	0.46309462	0.7573341	0.05547224	-0.80594087	-0.3389244	-0.42777917
1.4861087937110384e-09	0.41676205	0.78301597	0.0793488	-0.81475735	-0.31683004	-0.4264904
1.4902477695987722e-09	0.3717314	0.8038689	0.1049574	-0.8254631	-0.29420158	-0.42124104
1.4943940561715022e-09	0.32884932	0.8200309	0.13194662	-0.8378069	-0.27178812	-0.41174343
1.4985530842771905e-09	0.28853384	0.831859	0.16014801	-0.85150623	-0.25017536	-0.39784583
1.5027185880432706e-09	0.25123173	0.8396853	0.1893203	-0.86615515	-0.22995944	-0.37959886
1.5068766198486972e-09	0.21734807	0.84385645	0.21916795	-0.88125163	-0.2116661	-0.35728845
1.5110252354341169e-09	0.18708289	0.8447401	0.24948543	-0.8963072	-0.19562538	-0.33131656
1.5151798885340054e-09	0.16045888	0.84266144	0.28020698	-0.91090316	-0.18197256	-0.30207634
1.5193421456764464e-09	0.1375693	0.83788985	0.3111763	-0.92460185	-0.1707772	-0.27011767
1.5235049585204863e-09	0.11850202	0.8306752	0.3421801	-0.93699855	-0.16200148	-0.23612536
1.5276710141124723e-09	0.10324691	0.82122374	0.373085	-0.947803	-0.15546724	-0.20074654
1.5318342373850971e-09	0.091786735	0.8097294	0.40370074	-0.9568005	-0.15091844	-0.16471142
1.5359926811104696e-09	0.08404227	0.79635155	0.43387648	-0.963896	-0.1480214	-0.12870313
1.540153772445156e-09	0.07988993	0.7811862	0.46353674	-0.9691078	-0.14640264	-0.093294896
1.544329800918223e-09	0.07920068	0.7642691	0.49264243	-0.9725378	-0.14569004	-0.05899304
1.54853177622064e-09	0.081850834	0.7455979	0.5211423	-0.9743511	-0.14554168	-0.026303386
1.5527626409520964e-09	0.087700486	0.72517276	0.54892737	-0.97477293	-0.14567213	0.0042101457
1.5570008659163171e-09	0.09652138	0.70310223	0.57573617	-0.97409517	-0.1458844	0.031844046
1.5612470288064098e-09	0.108061776	0.67938364	0.6014633	-0.9726591	-0.14611053	0.056112707
1.5655050112753967e-09	0.122054875	0.65398026	0.6260255	-0.97081584	-0.1464396	0.07660319
1.5697825419446254e-09	0.1382312	0.6268174	0.6493577	-0.96889395	-0.14713074	0.092989914
1.5740871283019327e-09	0.15630849	0.5978068	0.6713853	-0.96716785	-0.14860861	0.10504239
1.5784249222485894e-09	0.17598397	0.5668623	0.69201714	-0.9658199	-0.15143436	0.11266597
1.58277319053326e-09	0.19679704	0.5341213	0.7110326	-0.96490735	-0.1562092	0.115938574
1.5871327377551039e-09	0.21837491	0.49958327	0.72833776	-0.9643244	-0.16350566	0.115225784
1.5915121712362435e-09	0.24038407	0.46320373	0.7438687	-0.9638203	-0.17379074	0.11107103
1.5959172427993683e-09	0.2624829	0.4249795	0.7575442	-0.96303487	-0.18734176	0.10414664
1.6003490532798955e-09	0.28431645	0.38497627	0.76926905	-0.9615528	-0.20418282	0.09521397
1.6048120943832294e-09	0.3055639	0.3432638	0.778961	-0.95897025	-0.2240961	0.08505424
1.6093046107695254e-09	0.32590127	0.3000079	0.78653	-0.9549656	-0.24660431	0.07443994
1.6138062321901453e-09	0.34496802	0.25560206	0.7918835	-0.94938135	-0.27093625	0.06413101
1.6183233165487611e-09	0.36257964	0.2102204	0.7949939	-0.94220763	-0.29633713	0.054744717
1.6228578835565675e-09	0.3785861	0.16410622	0.7958343	-0.93360645	-0.32198554	0.046830814
1.627412930813011e-09	0.3928995	0.117516086	0.7943872	-0.92388916	-0.34706888	0.040864367
1.6319939028293327e-09	0.4054984	0.07069943	0.79064035	-0.9134817	-0.37082896	0.03724098
1.6365891316767196e-09	0.416382	0.024091769	0.7846115	-0.90292645	-0.39250278	0.03625718
1.6411980905364674e-09	0.42565235	-0.021984348	0.7763319	-0.8927626	-0.41151747	0.03803219
1.6458244532175812e-09	0.43347937	-0.06725332	0.7658354	-0.8834848	-0.42747936	0.04247583
1.6504673045668432e-09	0.4400779	-0.11140376	0.753174	-0.87551194	-0.44017664	0.04923885
1.6551289842708587e-09	0.44571605	-0.15416904	0.73839986	-0.8691309	-0.4496371	0.05770485
1.659798122577767e-09	0.45068642	-0.19517751	0.72162175	-0.8644905	-0.45610046	0.06699649
1.664459703718641e-09	0.45531136	-0.23406468	0.7029895	-0.86157006	-0.4600216	0.07608601
1.6691239187455622e-09	0.4599527	-0.27070475	0.68256617	-0.8602009	-0.46199343	0.083981834
1.6737982989924153e-09	0.46497336	-0.3049472	0.66041714	-0.86015224	-0.4626136	0.089766525