# t (s)	mx ()	my ()	mz ()	m.region1x ()	m.region1y ()	m.region1z ()
0	0	1	0	0	1	0
1.023e-12	-0.01775347	0.9997877	0.009982966	-0.1486305	0.9888058	0.013087849
2.047e-12	-0.035155006	0.9991619	0.020036064	-0.2907026	0.9563702	0.028894112
4.095e-12	-0.06881191	0.99674255	0.040301103	-0.53569645	0.8418507	0.06436334
6.645287862482776e-12	-0.10851024	0.99173903	0.06577794	-0.74832994	0.6541289	0.106170215
9.18992980550615e-12	-0.14559676	0.98479927	0.09139438	-0.8700766	0.47104228	0.13811783
1.2066249584974983e-11	-0.18441802	0.9749342	0.120498285	-0.9374806	0.30244485	0.16155678
1.5132910197629562e-11	-0.22214864	0.9624258	0.15160325	-0.96667737	0.17240661	0.17528792
1.822086507894852e-11	-0.25632483	0.9481357	0.1829038	-0.9766272	0.08343965	0.18150301
2.1451795287266598e-11	-0.288025	0.9317498	0.21553355	-0.9792188	0.022349944	0.1829818
2.4910340013997547e-11	-0.31745076	0.91299164	0.2502243	-0.9794151	-0.019003307	0.18101259
2.866138626537567e-11	-0.34425524	0.89166546	0.28746158	-0.97936296	-0.046296597	0.17615843
3.2774597414474354e-11	-0.36778742	0.867588	0.327711	-0.9798899	-0.06403419	0.16860418
3.7237262269054984e-11	-0.3867526	0.84114283	0.3705628	-0.9811241	-0.07575626	0.15862161
4.209716549934049e-11	-0.4001401	0.8124413	0.41613	-0.9828351	-0.08465292	0.14654227
4.7396641681863673e-11	-0.40677714	0.7816726	0.464379	-0.9846341	-0.09301486	0.13300909
5.3178561858154423e-11	-0.40540832	0.7490116	0.51517254	-0.9861102	-0.10216302	0.11901545
5.948932250773034e-11	-0.39474225	0.7145055	0.5682725	-0.98695725	-0.11239978	0.105781764
6.597986416467133e-11	-0.37498164	0.6800234	0.62020284	-0.98708916	-0.12252865	0.09504181
7.250995884057009e-11	-0.3473105	0.64584863	0.6695682	-0.98673457	-0.13145895	0.087185286
7.908791365390885e-11	-0.31272674	0.61122525	0.7162249	-0.9861827	-0.1386209	0.08173465
8.572022223558474e-11	-0.27223662	0.57525176	0.7599745	-0.9856572	-0.14388014	0.077900775
9.235991364785215e-11	-0.22727095	0.53724796	0.8002582	-0.9852794	-0.14748485	0.07484588
9.901693026567377e-11	-0.17900833	0.496244	0.8368832	-0.9850631	-0.1499864	0.07186272
1.057185683200557e-10	-0.12854809	0.4512169	0.86968327	-0.98495656	-0.1519732	0.06854263
1.1249840167953813e-10	-0.07701464	0.4011751	0.8984225	-0.98488444	-0.15390292	0.064781256
1.1937633971636844e-10	-0.025747234	0.34535646	0.9227077	-0.98478323	-0.15601426	0.060702115
1.2626049413568536e-10	0.023035273	0.2842514	0.9418096	-0.98462677	-0.15829186	0.056583334
1.3315177016791343e-10	0.06790702	0.21803576	0.9554549	-0.98442525	-0.16060592	0.05259569
1.4009113994411714e-10	0.107826956	0.1468033	0.9634503	-0.9842089	-0.16280897	0.04875951
1.471308869542995e-10	0.14190683	0.07076153	0.9655323	-0.98400974	-0.16480261	0.04496352
1.542341248142481e-10	0.16906792	-0.008638049	0.96142817	-0.9838497	-0.16654597	0.04106331
1.6135837747186227e-10	0.18877605	-0.0895881	0.9511018	-0.98372954	-0.1680805	0.03691231
1.6856348738053305e-10	0.20126978	-0.17131977	0.9344869	-0.98363256	-0.1695084	0.03236626
1.7586651138088885e-10	0.20703296	-0.2525521	0.91156787	-0.9835356	-0.17091282	0.027394244
1.831514197623223e-10	0.20704088	-0.33065137	0.882944	-0.9834213	-0.17231011	0.022149099
1.9041485194742145e-10	0.20287055	-0.40453312	0.8490633	-0.98328286	-0.1736872	0.016756644
1.977017318854203e-10	0.19628116	-0.47384983	0.81013024	-0.9831241	-0.17500381	0.011293824
2.0491585582649702e-10	0.18928677	-0.5371986	0.76712173	-0.982958	-0.17618538	0.005893759
2.1207706308890392e-10	0.18379687	-0.594563	0.7204234	-0.98279446	-0.17719631	0.00054263737
2.1926283253769183e-10	0.1816335	-0.6463865	0.6699105	-0.9826351	-0.17803554	-0.0048604007
2.2636471492494284e-10	0.1845635	-0.6917702	0.61670554	-0.9824769	-0.17871092	-0.010291032
2.3341921305199976e-10	0.1940834	-0.7308384	0.5609045	-0.98230666	-0.17927061	-0.015818965
2.404585384009525e-10	0.21159069	-0.76339114	0.5025497	-0.9821089	-0.17976725	-0.021482652
2.4739794540422863e-10	0.2378759	-0.78846544	0.44266304	-0.98187333	-0.1802382	-0.027195513
2.542734858565236e-10	0.27365643	-0.80537486	0.38129434	-0.981592	-0.18071294	-0.032950226
2.611015672744184e-10	0.31930876	-0.8129096	0.31868142	-0.981262	-0.18120074	-0.03872399
2.6789526716306414e-10	0.37478834	-0.80941594	0.25516415	-0.9808844	-0.18169574	-0.044502735
2.745901062430021e-10	0.4387197	-0.7931037	0.19193241	-0.9804662	-0.18217723	-0.050220843
2.81220958484881e-10	0.509814	-0.7620163	0.12937987	-0.98000926	-0.18262817	-0.05590703
2.878537954373634e-10	0.58650225	-0.71367097	0.067766815	-0.9795111	-0.18303104	-0.061617393
2.9451016198262267e-10	0.66586894	-0.64563143	0.007996798	-0.9789731	-0.18335992	-0.06736061
3.010559878939556e-10	0.74213785	-0.5581054	-0.047493786	-0.9784126	-0.18357451	-0.07299508
3.0761189721715465e-10	0.81176835	-0.44943058	-0.09836904	-0.9778314	-0.18363218	-0.078582466
3.1428936103461254e-10	0.86999863	-0.3180727	-0.14376077	-0.9772375	-0.18345845	-0.08415806
3.2105400537257895e-10	0.9098975	-0.16664056	-0.18146455	-0.9766614	-0.1829462	-0.08961746
3.2774128733086126e-10	0.92515934	-0.0037177042	-0.2090109	-0.97615194	-0.18198757	-0.09474955
3.344135720314317e-10	0.9127323	0.16524807	-0.22561568	-0.975745	-0.18044563	-0.09951828
3.4119267026613506e-10	0.8703741	0.3354175	-0.2305206	-0.97548467	-0.17812867	-0.10388645
3.479839277814321e-10	0.7992195	0.49595553	-0.22304817	-0.9754341	-0.17489798	-0.1076164
3.5480228087692945e-10	0.70297813	0.6394856	-0.20338932	-0.9756543	-0.17060924	-0.11047772
3.616907866920211e-10	0.58696365	0.7606584	-0.17207287	-0.9762082	-0.1651359	-0.11215118
3.6855882030537956e-10	0.46025187	0.8543004	-0.1307836	-0.97713107	-0.1585534	-0.112215064
3.7532401106591164e-10	0.33237085	0.91939396	-0.08195046	-0.9784042	-0.15110925	-0.11032107
3.8206837171858377e-10	0.20867485	0.9590682	-0.026965426	-0.9799833	-0.14300829	-0.10619267
3.889198168491329e-10	0.09248468	0.976833	0.033559296	-0.98179245	-0.1344719	-0.09958887
3.956908921209145e-10	-0.009036902	0.9761518	0.096371524	-0.98362523	-0.12616843	-0.090849936
4.024473438014157e-10	-0.09481993	0.96166456	0.16061422	-0.9853323	-0.11842058	-0.08043915
4.0926500286029867e-10	-0.16465478	0.9370998	0.22584516	-0.9868014	-0.11146525	-0.06901813
4.1623672675505696e-10	-0.21871378	0.90526074	0.29198644	-0.98798037	-0.10546496	-0.057397723
4.2335923586254866e-10	-0.25663397	0.8687203	0.3581658	-0.98886913	-0.100634485	-0.04666933
4.305008213688827e-10	-0.27842247	0.83020234	0.42249218	-0.9895113	-0.09722689	-0.03802186
4.373788167886436e-10	-0.28552276	0.79260343	0.4820931	-0.98995525	-0.09544438	-0.032311525
4.4399244962465185e-10	-0.28090885	0.7565332	0.5369341	-0.99023247	-0.09528064	-0.029502764
4.5046815931440083e-10	-0.26681027	0.72135586	0.5880671	-0.99032706	-0.09674567	-0.029250927
4.5694187089691533e-10	-0.24446057	0.6860631	0.63645923	-0.99018574	-0.099918075	-0.031156639
4.635404988488602e-10	-0.21441358	0.6494443	0.6827902	-0.9897402	-0.1049093	-0.034753736
4.703126820589876e-10	-0.17724852	0.6104655	0.7269821	-0.98894167	-0.1117242	-0.039368447
4.773047292530484e-10	-0.13358377	0.5678575	0.76878583	-0.9877944	-0.120208465	-0.044067908
4.843655269242526e-10	-0.085583515	0.5214672	0.8067646	-0.9864207	-0.1297312	-0.047576487
4.913382165264222e-10	-0.035927206	0.47151664	0.83977544	-0.9850208	-0.13944238	-0.0487096
4.982086452602258e-10	0.013607528	0.41766748	0.86761403	-0.9837678	-0.1486864	-0.046666205
5.048112489880587e-10	0.06032108	0.36126587	0.88969195	-0.98279685	-0.15674798	-0.04121625
5.112806662197876e-10	0.10393406	0.30154157	0.9066266	-0.982112	-0.16345249	-0.032439798
5.177271566462092e-10	0.14409813	0.23786613	0.91866463	-0.9816799	-0.16861136	-0.020623289
5.242538327709043e-10	0.18038651	0.16966034	0.9257667	-0.9814598	-0.17197035	-0.006308857
5.308504492973371e-10	0.21176481	0.09765568	0.9276343	-0.98143595	-0.17318006	0.0093505345
5.374146027383939e-10	0.2371599	0.023898255	0.924153	-0.9816251	-0.1720366	0.024613732
5.436734781517978e-10	0.25576127	-0.047392063	0.9159043	-0.9820447	-0.16881882	0.03739154
5.496471428989739e-10	0.26850164	-0.11538958	0.9036299	-0.98269886	-0.16411255	0.046755135
5.554435575547217e-10	0.27650127	-0.18051462	0.88773406	-0.983578	-0.15852077	0.052334514
5.611484038365453e-10	0.2806674	-0.24307947	0.86840725	-0.984649	-0.15264823	0.05395323
5.66822859838721e-10	0.28179294	-0.30319223	0.8457328	-0.9858484	-0.14709003	0.05159095
5.725154035139132e-10	0.28065	-0.3608543	0.8197181	-0.98707885	-0.14240427	0.045379873
5.782715993826133e-10	0.278044	-0.41603804	0.7902895	-0.9882045	-0.13909216	0.035591967
5.841425486187435e-10	0.2748535	-0.468733	0.75725746	-0.9890494	-0.13758849	0.022631206
5.901868793678122e-10	0.27208498	-0.5189077	0.72030044	-0.989404	-0.13825496	0.0070664776
5.963397688538742e-10	0.27095407	-0.5654962	0.67984766	-0.98906755	-0.14126933	-0.009915139
6.023899738617422e-10	0.27261263	-0.6066866	0.6375148	-0.9879939	-0.1463453	-0.026417464
6.083953316275477e-10	0.2780037	-0.6428276	0.5932083	-0.9862798	-0.15310372	-0.041267697
6.142425011906158e-10	0.28772563	-0.6732217	0.54807997	-0.98418707	-0.16089208	-0.053098727
6.198735134910073e-10	0.30197534	-0.69770575	0.50294864	-0.98202085	-0.16904788	-0.061243266
6.253786981462525e-10	0.3210954	-0.7167063	0.45741698	-0.97998977	-0.17713936	-0.065793626
6.308165685464678e-10	0.34541908	-0.7301874	0.41125545	-0.9782467	-0.18469685	-0.06715196
6.361106989369488e-10	0.3745268	-0.7376758	0.36537123	-0.97691536	-0.19108635	-0.06610779
6.412472155922373e-10	0.40794766	-0.73896706	0.32016614	-0.9760249	-0.19590664	-0.063777715
6.462713390566216e-10	0.4454592	-0.7338252	0.27551582	-0.97554326	-0.19901817	-0.06124345
6.512327047488486e-10	0.48688504	-0.721775	0.23124816	-0.97540504	-0.20047385	-0.059399236
6.561743727411272e-10	0.53197443	-0.7020962	0.18726563	-0.97551554	-0.20049138	-0.058888365
6.610736589294194e-10	0.5797269	-0.6742403	0.1440902	-0.9757531	-0.1994255	-0.06004083
6.659213319321646e-10	0.6290188	-0.6377722	0.10215215	-0.9759938	-0.19769709	-0.06282678
6.707324297071186e-10	0.6787782	-0.59220624	0.06170047	-0.97614366	-0.1956702	-0.06696341
6.755185586022507e-10	0.7277257	-0.5371663	0.023053456	-0.97615534	-0.19359969	-0.07202563
6.802808063001228e-10	0.7743105	-0.47257596	-0.013351084	-0.97603065	-0.19162154	-0.07753914
6.849845789732103e-10	0.81656474	-0.39923868	-0.046814382	-0.9758117	-0.18977548	-0.083035015
6.896669091885548e-10	0.8531773	-0.31723785	-0.07716982	-0.97555655	-0.1879917	-0.08823577
6.943371506500642e-10	0.88256073	-0.22729596	-0.104022935	-0.97532463	-0.1861635	-0.09295183
6.989571546349734e-10	0.9030359	-0.131465	-0.12676592	-0.9751664	-0.1841834	-0.09706187
7.035113563784279e-10	0.91352624	-0.031794187	-0.14506143	-0.97511274	-0.18194608	-0.10056287
7.079863390139008e-10	0.91347355	0.06947936	-0.1587183	-0.9751765	-0.17937739	-0.10350377
7.124094654279011e-10	0.902726	0.17098543	-0.16775432	-0.9753584	-0.17641692	-0.10596484
7.168379229379574e-10	0.88110834	0.2720707	-0.17218155	-0.9756567	-0.17300625	-0.10800689
7.212730990365676e-10	0.84878117	0.37079716	-0.1718919	-0.97606593	-0.16914654	-0.10961601
7.257220379702405e-10	0.8062474	0.46540266	-0.16685067	-0.9765813	-0.16485658	-0.11073786
7.301375544906779e-10	0.75502455	0.55320954	-0.15723023	-0.97719306	-0.16022836	-0.111274265
7.344895108351069e-10	0.6970317	0.6324197	-0.14341387	-0.97789335	-0.15535818	-0.111130334
7.388104691761306e-10	0.6335406	0.7028038	-0.12567176	-0.9786847	-0.1502787	-0.11021242
7.431671030887114e-10	0.5651691	0.76470286	-0.10401759	-0.97957754	-0.14497824	-0.10839947
7.475617918878239e-10	0.49346346	0.81751955	-0.07869191	-0.98056585	-0.1395257	-0.10558519
7.519396641683114e-10	0.4209726	0.8604564	-0.050369527	-0.9816203	-0.13407086	-0.10175291
7.563063132028623e-10	0.34918255	0.8938913	-0.01944631	-0.9827149	-0.12869094	-0.09690959
7.606714823359511e-10	0.279342	0.91841865	0.013727295	-0.9838187	-0.123453625	-0.09110025
7.649635308349996e-10	0.21373262	0.9345137	0.048159085	-0.9848798	-0.11850929	-0.08454
7.692367917639458e-10	0.15238708	0.94340116	0.08385957	-0.98588324	-0.113841414	-0.077302955
7.735454232785126e-10	0.09531394	0.945997	0.12094174	-0.98681974	-0.10942832	-0.06945101
7.778902764843459e-10	0.04319796	0.9430337	0.15911251	-0.98767614	-0.105295	-0.061144676
7.822317626913697e-10	-0.0030330434	0.9353608	0.19773333	-0.9884434	-0.101484455	-0.052635152
7.86535870409325e-10	-0.04288021	0.9239322	0.23623069	-0.9891246	-0.09801019	-0.04416101
7.908025138060002e-10	-0.076424226	0.9095863	0.2743699	-0.9897349	-0.094844006	-0.035872605
7.950581282233205e-10	-0.10401451	0.8929292	0.31219012	-0.990293	-0.09193742	-0.027844258
7.993336478032905e-10	-0.12596393	0.87438315	0.34979236	-0.9908139	-0.08924621	-0.020126639
8.036370925729028e-10	-0.14241947	0.8543424	0.3870879	-0.9913042	-0.086748876	-0.012803628
8.07979313622078e-10	-0.15355185	0.8330922	0.42402285	-0.9917653	-0.08443002	-0.005948301
8.123490724681543e-10	-0.15951084	0.81093955	0.46036637	-0.99219036	-0.08229472	0.00033528358
8.167194911940849e-10	-0.1605412	0.7881979	0.49578315	-0.9925678	-0.08036255	0.0059322366
8.210811091683261e-10	-0.1570017	0.765018	0.5301078	-0.9928873	-0.07865277	0.010763596
8.254335790529947e-10	-0.14927475	0.7414317	0.5632616	-0.9931411	-0.07719195	0.014765563
8.297854942706221e-10	-0.13771717	0.7173599	0.59523684	-0.9933248	-0.07601755	0.017882504
8.341513552748272e-10	-0.12263605	0.69263506	0.62605894	-0.99343777	-0.075183235	0.02005942
8.385470202634533e-10	-0.104296625	0.6670318	0.6557432	-0.99348193	-0.07476399	0.02123908
8.429912471935596e-10	-0.08292363	0.6402617	0.6842986	-0.99346113	-0.0748593	0.021367082
8.474464779053243e-10	-0.05904146	0.6123511	0.71136916	-0.9933791	-0.07558153	0.020417674
8.519104811951028e-10	-0.033058554	0.5831155	0.73684305	-0.99323815	-0.07704194	0.018419733
8.563885896616948e-10	-0.005353369	0.55232215	0.7606487	-0.9930341	-0.079348944	0.015444632
8.608819191237117e-10	0.023659315	0.5197754	0.7826849	-0.9927566	-0.082592785	0.011613897
8.653927759865926e-10	0.053558566	0.4852931	0.8028533	-0.9923884	-0.08683413	0.007097473
8.699337347177784e-10	0.08398079	0.44863927	0.8210902	-0.9919076	-0.092106484	0.002098243
8.744967260098898e-10	0.11441418	0.40978065	0.8372412	-0.9912941	-0.09837484	-0.0031209236
8.79065272161715e-10	0.14429109	0.3688287	0.8511457	-0.9905351	-0.10553359	-0.008259158
8.836433506285286e-10	0.17319542	0.32578683	0.8627279	-0.9896252	-0.113457225	-0.013028175
8.88231008915058e-10	0.20070982	0.28075272	0.87190473	-0.9885707	-0.12197647	-0.017138205
8.928354798840873e-10	0.22649254	0.23381141	0.8786119	-0.9873872	-0.13090245	-0.020321527
8.974683120110905e-10	0.25025713	0.18505207	0.88278455	-0.98609877	-0.1400243	-0.022340393
9.021156955157088e-10	0.2716402	0.13488549	0.88434595	-0.9847438	-0.14904852	-0.023003042
9.067614311424656e-10	0.29036862	0.08381167	0.8832701	-0.9833684	-0.157652	-0.022226071
9.114107988898992e-10	0.30635533	0.032134153	0.8795643	-0.98201895	-0.16554345	-0.020054268
9.160727512368802e-10	0.31959587	-0.019866334	0.8732385	-0.9807496	-0.17245002	-0.016660858
9.207433150981935e-10	0.33012637	-0.07175521	0.8643307	-0.9796284	-0.17813371	-0.012353855
9.254191095473259e-10	0.33807945	-0.12310724	0.8529047	-0.9787273	-0.18246816	-0.0075295977
9.301066865248028e-10	0.3436856	-0.17362002	0.8390147	-0.9781063	-0.18548112	-0.002586114
9.348002473520092e-10	0.3472314	-0.2228803	0.8227613	-0.9777973	-0.18733849	0.0021342246
9.394867337132085e-10	0.3490764	-0.27044097	0.8042955	-0.9777827	-0.18831593	0.00640568
9.44168175265063e-10	0.3496457	-0.31605735	0.7837282	-0.97799474	-0.18872102	0.010139781
9.48848547473536e-10	0.34939712	-0.35953933	0.7611579	-0.9783365	-0.1888008	0.013311629
9.535297799431003e-10	0.34881073	-0.4007086	0.7366871	-0.978714	-0.18869282	0.01587542
9.58203585203302e-10	0.34838098	-0.43933192	0.71047324	-0.979064	-0.18842839	0.017701196
9.628674431647655e-10	0.3486003	-0.4752611	0.68264717	-0.97936887	-0.18798126	0.018576397
9.675329402749928e-10	0.3499528	-0.5084654	0.6532496	-0.9796462	-0.18733566	0.018248163
9.721972709054992e-10	0.35290655	-0.53880143	0.62240225	-0.9799201	-0.18654506	0.016501524
9.76845473341997e-10	0.3578845	-0.5660584	0.59031624	-0.9801939	-0.18575029	0.01326345
9.81483673161556e-10	0.36528128	-0.5901513	0.55706596	-0.9804409	-0.18514316	0.008633048
9.861190806407897e-10	0.37546098	-0.6109566	0.52271277	-0.9806101	-0.1849153	0.0028732044
9.907568592992929e-10	0.38874647	-0.6282858	0.48733148	-0.98064613	-0.18520628	-0.003633641
9.953963465295494e-10	0.40539175	-0.6418727	0.45104507	-0.98051006	-0.18606968	-0.010448256
1.0000295332595148e-09	0.4255423	-0.6513872	0.41404492	-0.98019236	-0.18746345	-0.017143818
1.004670480635191e-09	0.44935516	-0.65648526	0.3763572	-0.97971255	-0.18927567	-0.023406228
1.0093135644463378e-09	0.47680718	-0.65671706	0.3381792	-0.979115	-0.19133972	-0.029007738
1.013957486422394e-09	0.50777143	-0.65159434	0.29969347	-0.97845626	-0.19346993	-0.033857483
1.018594878371535e-09	0.5419365	-0.64061064	0.26115677	-0.9777937	-0.19548427	-0.037986066
1.0232338324554032e-09	0.578951	-0.62320864	0.22272468	-0.9771722	-0.1972332	-0.04154249
1.0278529254403461e-09	0.6180612	-0.59896636	0.18482676	-0.9766245	-0.19859433	-0.044720437
1.0324664298827662e-09	0.65863353	-0.56736577	0.14762843	-0.97616243	-0.19950068	-0.0477608
1.0370821604637367e-09	0.6998247	-0.5279403	0.11138663	-0.97578716	-0.19992085	-0.050874576
1.041698772594056e-09	0.740543	-0.48039746	0.07646757	-0.97549266	-0.199858	-0.05420955
1.0463128970887512e-09	0.7795294	-0.42465526	0.04328014	-0.97526926	-0.19934584	-0.05783606
1.0509335676095913e-09	0.8155104	-0.36069688	0.012168846	-0.9751069	-0.1984349	-0.061759356
1.0555799866706151e-09	0.84717625	-0.2885458	-0.016549628	-0.9749975	-0.19717582	-0.0659369
1.0602656419973871e-09	0.87307155	-0.20851879	-0.04247384	-0.9749363	-0.19561028	-0.07028685
1.0649372634181637e-09	0.89148456	-0.122483924	-0.06487013	-0.9749215	-0.19378941	-0.07465093
1.0695913080925034e-09	0.9012962	-0.031889267	-0.08337963	-0.9749519	-0.1917309	-0.078922786
1.0742489013088114e-09	0.9016794	0.06206966	-0.09777949	-0.9750287	-0.18941915	-0.08303241
1.0789398588394712e-09	0.89195013	0.15822528	-0.10785242	-0.9751565	-0.18681292	-0.0869228
1.083632332190105e-09	0.87188834	0.2540081	-0.11329943	-0.97534114	-0.18389577	-0.09048372
1.0882973754556039e-09	0.841956	0.34690613	-0.11403427	-0.97559136	-0.18066011	-0.093607575
1.0929443489452404e-09	0.8028977	0.43533927	-0.11012812	-0.97591907	-0.17708878	-0.09620702
1.0975858612829434e-09	0.75569165	0.51798904	-0.1016964	-0.97633934	-0.17317955	-0.0981838
1.1022203856949435e-09	0.7016833	0.59354305	-0.08893372	-0.9768648	-0.16896527	-0.09942926
1.1068303082041517e-09	0.6426288	0.66081136	-0.072177365	-0.97750044	-0.16452084	-0.09984771
1.1114002056995858e-09	0.5803925	0.71911395	-0.051866606	-0.97824115	-0.1599425	-0.09938278
1.1159314260307487e-09	0.51658666	0.7683955	-0.02842458	-0.9790738	-0.15531997	-0.09802093
1.120438772197675e-09	0.45250055	0.8089938	-0.0021981504	-0.9799797	-0.15072602	-0.095779836
1.1249389752876315e-09	0.38923752	0.84138614	0.026513949	-0.9809354	-0.14621924	-0.09270033
1.129445962945995e-09	0.327793	0.8661033	0.05743101	-0.98191625	-0.14184362	-0.08884106
1.1339722262930763e-09	0.2690467	0.8837222	0.0902909	-0.9828989	-0.13762598	-0.08426898
1.1385292600064144e-09	0.21376677	0.89484835	0.12484819	-0.98386556	-0.13357823	-0.07904905
1.143118978096864e-09	0.16270985	0.9000952	0.16080275	-0.98480326	-0.12971051	-0.073248036
1.1476907187720619e-09	0.11698215	0.90013695	0.19744323	-0.985696	-0.12606981	-0.0669962
1.1522560650782443e-09	0.07678168	0.89575183	0.23456615	-0.98654634	-0.12265041	-0.060338303
1.156847523842806e-09	0.04206874	0.887574	0.27217746	-0.98736143	-0.11943842	-0.053275306
1.1614581288892151e-09	0.013066452	0.876192	0.30998772	-0.9881392	-0.116452396	-0.045865264
1.1660789762406444e-09	-0.010135461	0.8621498	0.34771168	-0.98887426	-0.11370493	-0.038179886
1.170692595823572e-09	-0.02755592	0.84595704	0.38501558	-0.9895552	-0.111197114	-0.030318337
1.1753079146582293e-09	-0.039424457	0.8279494	0.42179927	-0.9901721	-0.10889357	-0.02234494
1.1799416794831316e-09	-0.045993414	0.8083201	0.45803398	-0.9907146	-0.10673436	-0.014315023
1.184610097812705e-09	-0.047491018	0.7871573	0.49368566	-0.99117404	-0.104642086	-0.0062876306
1.1892747658280812e-09	-0.044191025	0.7647232	0.52831376	-0.9915412	-0.102553815	0.0015837302
1.1939410773118634e-09	-0.03646076	0.7410212	0.5618282	-0.9918189	-0.10039278	0.009221303
1.1986004615674468e-09	-0.024713425	0.7160661	0.59404445	-0.99201554	-0.09811177	0.016520195
1.2032476225627136e-09	-0.009397276	0.68981713	0.6248126	-0.9921458	-0.0956997	0.023372538
1.2078843907088966e-09	0.009041515	0.66216457	0.6540347	-0.9922293	-0.09318721	0.029667348
1.212518740467593e-09	0.030179972	0.63293886	0.68164694	-0.99228925	-0.090648495	0.03528471
1.2171589814255051e-09	0.05360115	0.60195166	0.7075756	-0.9923506	-0.08820101	0.040089842
1.221810760939523e-09	0.078872226	0.5690264	0.7317208	-0.992438	-0.085999586	0.043940466
1.2264618497126907e-09	0.10544787	0.5341327	0.7538932	-0.99257183	-0.084228195	0.046697933
1.231124153583432e-09	0.13290812	0.4970941	0.77402747	-0.9927637	-0.08306279	0.0482768
1.2357805500722758e-09	0.16066387	0.45800346	0.79193944	-0.99300975	-0.08266724	0.0486318
1.240441041295056e-09	0.18829586	0.4167885	0.8075721	-0.9932904	-0.08315873	0.047784563
1.2451162119057784e-09	0.21540667	0.3734096	0.82086205	-0.99356985	-0.08460776	0.045800585
1.2498206609781723e-09	0.24164057	0.32783026	0.83174425	-0.9938	-0.08703545	0.04277656
1.2545101705141235e-09	0.2663601	0.2806572	0.8400465	-0.99392587	-0.09036913	0.038882103
1.2591931736271034e-09	0.28929132	0.23205918	0.8457576	-0.9939001	-0.094510525	0.034274112
1.2638751465400353e-09	0.31020394	0.18227178	0.8488619	-0.99368685	-0.099338256	0.02911067
1.268560055540625e-09	0.32892662	0.13157924	0.84934807	-0.9932658	-0.10472276	0.023553118
1.2732544429322224e-09	0.34536675	0.08026331	0.8472095	-0.9926335	-0.11054194	0.017769655
1.2779737298762593e-09	0.35952383	0.02852598	0.8424308	-0.99180144	-0.116696686	0.011938403
1.282734056730015e-09	0.37145066	-0.0234239	0.83497757	-0.99079466	-0.123102486	0.0062690526
1.287525485312335e-09	0.38120618	-0.07508169	0.8248612	-0.9896569	-0.12964936	0.0010369256
1.2923087081158816e-09	0.38890994	-0.12564246	0.8122183	-0.9884499	-0.1361923	-0.003444874
1.2970822268221527e-09	0.39485446	-0.1747445	0.7971541	-0.9872282	-0.1426409	-0.00693897
1.30186278008108e-09	0.39940464	-0.2222384	0.77971756	-0.9860363	-0.14892483	-0.009288997
1.3066640858867258e-09	0.4029544	-0.26795247	0.75994897	-0.9849104	-0.1549546	-0.010440175
1.3114893415512314e-09	0.40592578	-0.31162447	0.73792356	-0.9838813	-0.16060917	-0.010480937
1.3163287006528347e-09	0.40876785	-0.35290053	0.713787	-0.9829769	-0.16574635	-0.009667982
1.3211682266705204e-09	0.41194612	-0.39143628	0.6877289	-0.9822221	-0.17024297	-0.008399424
1.3260036095464243e-09	0.41592905	-0.42700323	0.6599042	-0.98163265	-0.17404036	-0.007129365
1.3308430821680334e-09	0.42118132	-0.4594716	0.6303945	-0.9812093	-0.17716129	-0.0062686666
1.3356878870725957e-09	0.42814115	-0.4886459	0.59931594	-0.98093206	-0.17969306	-0.0061123236
1.3405353309562095e-09	0.43720645	-0.514292	0.5668116	-0.98075837	-0.18177086	-0.006794632
1.3453856135881051e-09	0.44873208	-0.53616977	0.53301084	-0.98063093	-0.18354611	-0.008291906
1.3502398958950476e-09	0.46301842	-0.5540064	0.49804276	-0.9804937	-0.18515189	-0.010464045
1.355106812830725e-09	0.48032713	-0.5675001	0.4619912	-0.98030406	-0.18668576	-0.013115832
1.3599684177843014e-09	0.50073665	-0.5762337	0.42515412	-0.98004323	-0.18819495	-0.016032679
1.3648079988961276e-09	0.5241834	-0.5798191	0.3878503	-0.97971535	-0.18969148	-0.019038303
1.3696291517927474e-09	0.5505613	-0.5778922	0.35026544	-0.9793391	-0.19116665	-0.022037968
1.3744475428051524e-09	0.57971984	-0.57002836	0.31250954	-0.97893834	-0.19259472	-0.02502194
1.3792823337815017e-09	0.6114222	-0.55570686	0.2746888	-0.97853595	-0.19393106	-0.02805151
1.3840942730221171e-09	0.64488554	-0.53461146	0.23739386	-0.9781558	-0.19509701	-0.031198472
1.3888560229806318e-09	0.67920744	-0.5066281	0.20113361	-0.9778151	-0.1960104	-0.03455299
1.3935931037515988e-09	0.71373457	-0.47147346	0.16602375	-0.9775219	-0.19660158	-0.038222585
1.3983139317937133e-09	0.74758625	-0.42900252	0.1323334	-0.9772807	-0.19680715	-0.042265784
1.4030193899560169e-09	0.7797324	-0.3792628	0.10040275	-0.97708994	-0.1965841	-0.046683505
1.4077086572103416e-09	0.8090724	-0.32250977	0.07058931	-0.9769413	-0.19591598	-0.051419172
1.4123813505174342e-09	0.8344977	-0.2592119	0.04324346	-0.97682124	-0.19480954	-0.056365717
1.4170159102043046e-09	0.85486376	-0.19039206	0.018806119	-0.9767167	-0.19329463	-0.061353635
1.421479108493617e-09	0.86896837	-0.11921482	-0.0018858189	-0.9766216	-0.19146459	-0.06607595
1.425836053564802e-09	0.8767692	-0.046000645	-0.01912952	-0.9765344	-0.18934743	-0.07045125
1.4301362599896855e-09	0.87812567	0.028869567	-0.03306548	-0.9764638	-0.18695612	-0.0743935
1.4344096886827088e-09	0.87286705	0.104759164	-0.04370455	-0.97642606	-0.18430144	-0.07780563
1.438671698960153e-09	0.86090446	0.18078972	-0.0509979	-0.97644347	-0.18140034	-0.08058815
1.442930555423124e-09	0.842304	0.25596377	-0.054894984	-0.97654027	-0.17827947	-0.0826503
1.4471946128820241e-09	0.81729233	0.3293137	-0.055369947	-0.9767389	-0.17497508	-0.083916724
1.451475172681399e-09	0.7862258	0.39997172	-0.052418943	-0.97705746	-0.17153294	-0.084326535
1.4557852727991223e-09	0.74957395	0.46715978	-0.046051145	-0.97750765	-0.16801034	-0.08382988
1.4600896025394864e-09	0.7084031	0.52949977	-0.03641345	-0.978086	-0.16451575	-0.08240784
1.4643797092284496e-09	0.6637375	0.58628863	-0.023712453	-0.97878027	-0.16114102	-0.08007565
1.4686638075849316e-09	0.61648417	0.63724995	-0.008143989	-0.9795726	-0.15796284	-0.07686136
1.4729513517266748e-09	0.56752473	0.6822642	0.010100213	-0.9804403	-0.15505052	-0.072802745
1.477253920174104e-09	0.5176831	0.7213502	0.030845122	-0.98135805	-0.15246105	-0.06794262
1.481550256115681e-09	0.46811467	0.75438553	0.05374542	-0.9822925	-0.15025209	-0.062372338
1.485837699420823e-09	0.41967487	0.78159547	0.078523815	-0.98321533	-0.14844406	-0.056173686
1.4901294004976684e-09	0.37293926	0.8033812	0.10500406	-0.9841044	-0.14702828	-0.04940244
1.4944346440336242e-09	0.3284384	0.8201306	0.13300891	-0.9849395	-0.14597996	-0.04210806
1.4987601591533105e-09	0.28664607	0.83222365	0.16235933	-0.9857028	-0.14525974	-0.034330424
1.5031125965244023e-09	0.24795976	0.840032	0.19288617	-0.9863785	-0.14481747	-0.026094483
1.5074982859516226e-09	0.21271263	0.8439052	0.2244263	-0.9869509	-0.14459799	-0.017411636
1.5118882326246548e-09	0.18141666	0.84417176	0.2565623	-0.98740095	-0.14454632	-0.008357766
1.5162803798419646e-09	0.15424824	0.841193	0.28907195	-0.9877141	-0.14460985	0.001041018
1.5206790202730167e-09	0.13127981	0.8352837	0.32179022	-0.9878767	-0.14474435	0.01076338
1.5250889566600429e-09	0.112542	0.82670426	0.35456562	-0.98787546	-0.14491326	0.020772437
1.529516286117652e-09	0.09803084	0.81565976	0.38726363	-0.9877	-0.1450844	0.031011544
1.5339679351491883e-09	0.087717965	0.80230236	0.41976053	-0.9873457	-0.14522602	0.04140192
1.5384494149111134e-09	0.08155678	0.78674066	0.45192468	-0.9868159	-0.14530315	0.05184109
1.5429656067264271e-09	0.07947387	0.7690436	0.4836207	-0.98612386	-0.14527641	0.062212955
1.5475199421168968e-09	0.081362255	0.7492469	0.5147025	-0.9852924	-0.14510337	0.07239656
1.5520961474714014e-09	0.087041885	0.7274494	0.5448957	-0.9843562	-0.14474426	0.08223758
1.5566758068323261e-09	0.096225664	0.7037613	0.57393205	-0.9833563	-0.14416973	0.09159919
1.561268543675411e-09	0.10861559	0.6781372	0.6017352	-0.98232824	-0.1433612	0.100420356
1.5658824237773668e-09	0.12389414	0.6505078	0.6282137	-0.98130685	-0.142315	0.10863968
1.5705223385806341e-09	0.1417102	0.6208017	0.65325207	-0.9803273	-0.14104548	0.11618253
1.5751839257331113e-09	0.16164343	0.5890004	0.6766841	-0.9794278	-0.13958855	0.12294618
1.5798494262218575e-09	0.18317246	0.55519974	0.6982926	-0.9786493	-0.13800424	0.12880135
1.5845221575118634e-09	0.20584494	0.5193757	0.7179778	-0.9780276	-0.13636266	0.1336446
1.5892054461485858e-09	0.22920807	0.4815239	0.7356405	-0.97759515	-0.13474698	0.13737129
1.59390083507522e-09	0.2528074	0.44168374	0.7511784	-0.9773763	-0.13325147	0.13988546
1.5986099834405858e-09	0.2762054	0.39993143	0.76449645	-0.97738284	-0.1319776	0.14111136
1.603333573960815e-09	0.29898727	0.35639435	0.7755067	-0.9776106	-0.13103095	0.14099939
1.6080691314660085e-09	0.3207637	0.31127617	0.78412825	-0.97803897	-0.13051748	0.13953184
1.6128087866345163e-09	0.3411776	0.2648821	0.7902955	-0.9786307	-0.13053714	0.13673104
1.6175484887057698e-09	0.35996068	0.217526	0.79397666	-0.97933716	-0.13117649	0.1326605
1.6222820300546746e-09	0.376916	0.16957799	0.7951653	-0.9801007	-0.132502	0.12742989
1.6270130454851433e-09	0.3919631	0.121331364	0.79387945	-0.9808609	-0.1345574	0.121182345
1.6317498775767586e-09	0.40510568	0.073043056	0.7901404	-0.9815572	-0.13736126	0.11409261
1.6364977253652101e-09	0.41640323	0.025008231	0.7839727	-0.9821313	-0.14089869	0.10637497
1.6412515126204863e-09	0.4259617	-0.0223752	0.77542615	-0.98253226	-0.14510833	0.09829167
1.6459907781558496e-09	0.43393794	-0.06857492	0.764613	-0.9827233	-0.14987029	0.09015087
1.6507265785180423e-09	0.44060826	-0.11339435	0.7516	-0.98268956	-0.15505938	0.08220577
1.6554682604658898e-09	0.4462807	-0.15663303	0.7364481	-0.9824349	-0.16052915	0.07469623
1.6602203657582324e-09	0.45128837	-0.1980586	0.71922714	-0.98198146	-0.16611773	0.06784057
1.6649808013363089e-09	0.45598418	-0.23739775	0.7000347	-0.9813671	-0.1716584	0.06181979
1.669747882334132e-09	0.46073878	-0.27440143	0.67897594	-0.9806381	-0.17700279	0.056748103
1.674528312931776e-09	0.4659377	-0.30889547	0.65612304	-0.97984105	-0.18204193	0.0526517