# t (s)	mx ()	my ()	mz ()	m.region1x ()	m.region1y ()	m.region1z ()
0	0	1	0	0	1	0
1.023e-12	-0.024331473	0.99957377	0.015727598	-0.029416155	0.99941885	0.017226256
2.047e-12	-0.048067603	0.9983196	0.03154728	-0.0581515	0.9977082	0.03459385
4.095e-12	-0.09359793	0.99349004	0.06335691	-0.1133404	0.9911158	0.06959437
8.191e-12	-0.17645869	0.97565615	0.12726751	-0.21379936	0.9668002	0.1399426
1.5449741895730907e-11	-0.29522943	0.92364	0.23942521	-0.35713452	0.89654076	0.26197994
2.26428198408417e-11	-0.3781488	0.8558183	0.34638467	-0.45668855	0.8067739	0.374722
2.9961795641288405e-11	-0.43040425	0.77865344	0.4486404	-0.5208095	0.7072781	0.47769445
3.749236304950017e-11	-0.4555294	0.6963678	0.5454593	-0.55634844	0.6041068	0.5700257
4.528550527176955e-11	-0.45695478	0.6113736	0.6358173	-0.5696877	0.5003874	0.65124226
5.3346191577596596e-11	-0.4383427	0.5248225	0.7182753	-0.5665615	0.39743215	0.72090876
6.164278356094991e-11	-0.40383527	0.43683475	0.79120123	-0.5520762	0.29540032	0.77857494
7.015503828317684e-11	-0.35777146	0.34643996	0.8532249	-0.5305897	0.19344321	0.8239031
7.890126303597934e-11	-0.30421245	0.25183558	0.9031983	-0.5055821	0.09000796	0.8564545
8.792659039180072e-11	-0.24681832	0.1509987	0.93980277	-0.4797126	-0.016628513	0.87533367
9.727816428157343e-11	-0.18891369	0.04238894	0.9612739	-0.4548418	-0.12782672	0.87902457
1.0698904635072867e-10	-0.13330853	-0.07442008	0.9654329	-0.4317752	-0.24416488	0.8655018
1.1672032696248152e-10	-0.08338225	-0.19391242	0.9508323	-0.41048563	-0.36092454	0.83404136
1.2561801715803455e-10	-0.04209643	-0.30299014	0.92111206	-0.3903231	-0.46665126	0.78972214
1.3414912794661318e-10	-0.0043379394	-0.40490022	0.87827617	-0.36727965	-0.5657251	0.73374367
1.4262431468094306e-10	0.03451678	-0.5008842	0.8224133	-0.3370949	-0.6603795	0.6658262
1.5115557634348298e-10	0.07892081	-0.5892219	0.75364584	-0.29511172	-0.74994785	0.58611584
1.5952851673093987e-10	0.13187842	-0.66445136	0.67504203	-0.23818393	-0.8297585	0.49805075
1.6768750903200454e-10	0.19622824	-0.72291106	0.58921707	-0.16368861	-0.89641225	0.4042017
1.7572615145853713e-10	0.274744	-0.761511	0.49741325	-0.068708025	-0.9467232	0.30542785
1.8357487824039746e-10	0.36703765	-0.7756072	0.40286547	0.04652652	-0.97513163	0.2045276
1.9135154208834919e-10	0.47260126	-0.76056916	0.30691588	0.18242183	-0.97555864	0.1020553
1.9910766917237688e-10	0.5878043	-0.7106849	0.21211784	0.33632097	-0.93952143	-0.0002957699
2.0671336188869966e-10	0.7030755	-0.62293255	0.12375945	0.49794534	-0.85937166	-0.097792104
2.141048481770241e-10	0.8073261	-0.498456	0.046328165	0.65368545	-0.73086077	-0.18593922
2.2145992407054004e-10	0.89175725	-0.33782282	-0.018209446	0.791115	-0.5488439	-0.262116
2.28874401880243e-10	0.9454236	-0.14543763	-0.06645142	0.8914065	-0.31275642	-0.32072595
2.362390983152932e-10	0.957989	0.06406249	-0.09413761	0.93175733	-0.03821633	-0.3533727
2.4351621674134686e-10	0.92618287	0.2736981	-0.0994613	0.89809656	0.24879806	-0.3535753
2.507628621824125e-10	0.8529666	0.4688611	-0.08243457	0.7889003	0.518771	-0.31758928
2.5801231455727794e-10	0.7465584	0.63654107	-0.044304684	0.61727005	0.7415907	-0.24546842
2.652576121944445e-10	0.6196636	0.7672872	0.012133964	0.41009855	0.8954159	-0.14275259
2.725955519569092e-10	0.4845717	0.8585484	0.08404859	0.19606668	0.97519565	-0.017522767
2.801213636042307e-10	0.35290247	0.910962	0.16855493	0.00018000975	0.9873996	0.1208002
2.8791884392660577e-10	0.23505381	0.9275106	0.2625888	-0.16029888	0.9459606	0.26292378
2.9603518907426756e-10	0.13979234	0.91287684	0.3625505	-0.2769429	0.8676344	0.4006468
3.0426597153240126e-10	0.07448368	0.87407386	0.4618373	-0.3482411	0.77053314	0.52484345
3.1274395224819865e-10	0.039005592	0.81677866	0.5584395	-0.38271332	0.66424537	0.6350245
3.2161878438472785e-10	0.032263637	0.7438483	0.65058494	-0.3883897	0.552481	0.7316898
3.3103353459881515e-10	0.052547112	0.655743	0.73591447	-0.37212843	0.435185	0.8149063
3.408184370912964e-10	0.095444046	0.5542371	0.80899787	-0.34124383	0.31357014	0.8818017
3.5090081689712e-10	0.15410201	0.43975386	0.86586094	-0.3030808	0.18628173	0.930622
3.609595188581961e-10	0.21906033	0.31643	0.9024411	-0.2650596	0.055394977	0.9588312
3.7092415060954565e-10	0.28320366	0.18740521	0.9177803	-0.23171693	-0.07867357	0.9657395
3.8097169170824626e-10	0.34332255	0.05424371	0.9117233	-0.20441125	-0.21722588	0.9503875
3.912345261103268e-10	0.39834884	-0.079275906	0.8835616	-0.18223031	-0.35951513	0.9106724
4.0127106324990755e-10	0.44721454	-0.20078324	0.83580095	-0.1622046	-0.4955863	0.84823364
4.1108232324988063e-10	0.4937249	-0.30419952	0.7718823	-0.137771	-0.62134826	0.7656232
4.209988966540867e-10	0.5440586	-0.38664883	0.69289446	-0.09986201	-0.7363705	0.66264224
4.3062204094347155e-10	0.6001165	-0.43928218	0.6059164	-0.04190056	-0.8310119	0.5470867
4.398612485579929e-10	0.6626152	-0.45901176	0.5166237	0.04021635	-0.8998625	0.42517275
4.4896500546453665e-10	0.73169565	-0.4442679	0.4271743	0.15063806	-0.93866646	0.29822195
4.5791532769431277e-10	0.80289346	-0.39329597	0.34215704	0.28805447	-0.9387238	0.170625
4.668736217376655e-10	0.8703016	-0.3048278	0.26461875	0.44918597	-0.88884115	0.04444196
4.756528469468159e-10	0.92351437	-0.18392044	0.2005597	0.61802524	-0.7790409	-0.07259035
4.84462905187484e-10	0.95458597	-0.035020187	0.15242562	0.77775216	-0.5984978	-0.17659321
4.932648538740242e-10	0.95572823	0.1304164	0.12392534	0.8986627	-0.34649402	-0.2578793
5.020118230381908e-10	0.9240762	0.2973857	0.117014445	0.9481517	-0.03950795	-0.30506265
5.108461097723606e-10	0.8614987	0.45384547	0.13191515	0.9013052	0.29274866	-0.30733007
5.19802611471283e-10	0.77493995	0.5871745	0.16771048	0.75154316	0.6004126	-0.2558035
5.287556332905488e-10	0.6771382	0.6868595	0.22082944	0.5277606	0.8287468	-0.15241724
5.378056481660956e-10	0.57968575	0.7508501	0.28746882	0.27780068	0.95353293	-0.008779896
5.469794710962018e-10	0.49344012	0.78011155	0.36308473	0.05069454	0.97871554	0.1563525
5.563019042316714e-10	0.4263479	0.77830935	0.44305006	-0.12285944	0.9294416	0.32420117
5.658934236651868e-10	0.3825363	0.7497257	0.5237585	-0.23518948	0.83402705	0.4826516
5.758427261319719e-10	0.3638249	0.6977804	0.6014272	-0.2914631	0.71354663	0.62448955
5.860147907145069e-10	0.36929965	0.62650347	0.67073804	-0.30307174	0.5823729	0.7439456
5.963974716810148e-10	0.3947936	0.53897566	0.72790015	-0.28446198	0.4453378	0.8399698
6.072092731854391e-10	0.43562523	0.43574017	0.7703547	-0.24760056	0.2991895	0.9132838
6.186550322595591e-10	0.48706675	0.31756452	0.7944315	-0.20210667	0.13874118	0.96154046
6.307785185028164e-10	0.5437694	0.18904069	0.79557264	-0.15692878	-0.03847595	0.9786856
6.42981603238248e-10	0.59890074	0.06499414	0.77196735	-0.11985976	-0.22191519	0.9587657
6.547731616233791e-10	0.6496223	-0.040256836	0.7277648	-0.09060088	-0.39810124	0.9028026
6.6661017114477e-10	0.6997175	-0.12201922	0.6660123	-0.05947317	-0.5655779	0.81092584
6.782723195793719e-10	0.7503682	-0.1708922	0.5931512	-0.013828088	-0.7117711	0.688643
6.892602804058189e-10	0.79968727	-0.18230473	0.5189951	0.0564256	-0.82240605	0.54984605
6.999917881292162e-10	0.84715617	-0.1577705	0.44693112	0.16109386	-0.8935124	0.39872968
7.10754754479275e-10	0.8891196	-0.097544976	0.38062286	0.3063506	-0.913229	0.23920922
7.211968419629656e-10	0.9178816	-0.008480456	0.32713953	0.48078457	-0.8651004	0.084865555
7.313666089115659e-10	0.9283587	0.100199945	0.289484	0.66521406	-0.73655427	-0.05603022
7.41493894994591e-10	0.9174968	0.21987264	0.26902962	0.83182615	-0.5160847	-0.17567375
7.516365033964827e-10	0.8847794	0.33941454	0.26691794	0.93769324	-0.20670807	-0.2597345
7.614046857973772e-10	0.8359342	0.4435851	0.28187883	0.9399873	0.14456907	-0.29038513
7.708085433352644e-10	0.77868855	0.5260379	0.31030133	0.8306706	0.47841978	-0.26093274
7.805152559900252e-10	0.7164638	0.5880476	0.3512121	0.62140906	0.7548357	-0.16758204
7.906421968251538e-10	0.6560272	0.62598157	0.4025765	0.35674137	0.9235723	-0.015778938
8.009012770836579e-10	0.6061079	0.6376545	0.45927948	0.10955286	0.96826535	0.16755474
8.113670627002431e-10	0.57112414	0.624956	0.5175217	-0.07605523	0.91826296	0.3564167
8.219801586215576e-10	0.55343187	0.59082144	0.5728792	-0.18644916	0.8124902	0.5299142
8.328209068749868e-10	0.5526012	0.5382719	0.6219641	-0.23229893	0.6789291	0.67918825
8.438293397340151e-10	0.5664246	0.47104824	0.6611458	-0.23119824	0.53269315	0.79983693
8.552668766310882e-10	0.59206176	0.3911683	0.68820035	-0.20029902	0.37434542	0.8929097
8.672311954196153e-10	0.626337	0.3022884	0.7001604	-0.153643	0.2014983	0.955739
8.797634217419945e-10	0.6660002	0.2103501	0.69446844	-0.103264846	0.012057012	0.98297524
8.929094540418623e-10	0.70857596	0.12374377	0.6697673	-0.057344384	-0.19279683	0.9671103
9.065693373129609e-10	0.7522682	0.05396882	0.62714064	-0.016606053	-0.40329874	0.9007187
9.203132402358017e-10	0.79485667	0.013312429	0.5721655	0.029502437	-0.59826374	0.7839525
9.337383697560207e-10	0.8335135	0.008057766	0.5133206	0.10016818	-0.75498545	0.6277322
9.467315322859435e-10	0.86477876	0.03708325	0.45825112	0.21284863	-0.85500896	0.44735855
9.595305023961007e-10	0.8848659	0.09562844	0.4120415	0.37680304	-0.87915874	0.25509843
9.718517550644334e-10	0.88963914	0.17320475	0.37996924	0.576128	-0.80408025	0.07151602
9.8376678312191e-10	0.878173	0.25862572	0.36361572	0.77581567	-0.61401045	-0.08719702
9.949019389596424e-10	0.85355365	0.3384256	0.36247995	0.9183097	-0.3241616	-0.19922204
1.004999393016876e-09	0.8220475	0.40380052	0.37291244	0.9614754	0.011778366	-0.25166592
1.014527037435281e-09	0.7875792	0.4548376	0.39159068	0.89785707	0.346851	-0.24400301
1.0241062242043035e-09	0.7518788	0.49289954	0.417324	0.734704	0.64198923	-0.17467509
1.0342801662662775e-09	0.71666	0.5172849	0.44999516	0.4954024	0.8548664	-0.04175145
1.0448395481736594e-09	0.68657744	0.5250756	0.4869162	0.24408914	0.9465693	0.13638893
1.0555917588930835e-09	0.6651931	0.51598954	0.52465236	0.042233944	0.9286871	0.3287937
1.066164597921136e-09	0.654232	0.4925076	0.5591573	-0.08252406	0.84272504	0.5054091
1.0767614883113477e-09	0.6529158	0.45718604	0.58883554	-0.14091203	0.7218226	0.6577854
1.08752007290542e-09	0.6601698	0.4122932	0.61208737	-0.14976637	0.5823841	0.7831588
1.0988553315386578e-09	0.6751336	0.35875884	0.6276612	-0.12449357	0.42542917	0.882911
1.1109162762495847e-09	0.69675905	0.29923186	0.63332164	-0.07804389	0.24915682	0.9530168
1.1234735237182947e-09	0.7229098	0.23972896	0.6272812	-0.02425899	0.05613997	0.98596543
1.136748664825217e-09	0.75220007	0.18562098	0.6088767	0.027960725	-0.15465112	0.9745252
1.1505023407995776e-09	0.78229195	0.14523557	0.57944643	0.075557455	-0.3703547	0.91084796
1.1641850810181608e-09	0.8100852	0.12572894	0.5435768	0.12671402	-0.56646454	0.79652
1.1781430092237276e-09	0.8339432	0.12964973	0.50501144	0.20332225	-0.7269205	0.634395
1.192054550541007e-09	0.85038495	0.15686393	0.46962804	0.32595617	-0.8218483	0.44024202
1.2058005007569278e-09	0.8566459	0.20255388	0.44215238	0.50155044	-0.8207635	0.23483993
1.2187515415001425e-09	0.8518516	0.2564558	0.4260997	0.70023024	-0.7015157	0.049861655
1.2305915205934435e-09	0.8384531	0.30864915	0.4211202	0.8695767	-0.47271314	-0.09069088
1.2413647003915213e-09	0.8200443	0.35360074	0.42475593	0.96380687	-0.17062911	-0.17478389
1.2513699937067557e-09	0.7994193	0.38975263	0.4345417	0.96061	0.15754308	-0.19900554
1.2611177371789826e-09	0.77799666	0.41750646	0.4490711	0.8586171	0.4693386	-0.16290832
1.2711927295450238e-09	0.7565291	0.43696144	0.46798465	0.67054856	0.7253109	-0.064808674
1.2818117995123467e-09	0.7367163	0.44659805	0.49053785	0.43613344	0.88213974	0.08906128
1.2923584936583214e-09	0.7215398	0.44529247	0.5137777	0.226495	0.9232684	0.26652288
1.3029639918928986e-09	0.7117896	0.4339758	0.5362005	0.075119995	0.8788633	0.44401976
1.3133323453916773e-09	0.7078742	0.41464138	0.5556677	-0.008689657	0.7850474	0.60027397
1.32381423214654e-09	0.70926607	0.3885832	0.57161283	-0.039219856	0.66290426	0.73308355
1.334625394842566e-09	0.7155941	0.35701492	0.58313274	-0.030261908	0.5210593	0.84099513
1.3459236220310717e-09	0.7264133	0.32152963	0.58916074	0.0053916555	0.36121178	0.9218284
1.357781713329163e-09	0.7410283	0.28459156	0.5886629	0.055694092	0.18292849	0.9712752
1.3703845931268446e-09	0.75867164	0.24917716	0.58087736	0.1106805	-0.015358028	0.9829215
1.383472683228481e-09	0.77768636	0.22019663	0.5660709	0.16260792	-0.22358891	0.9487418
1.3972655573237468e-09	0.79678726	0.20154221	0.5451757	0.2144841	-0.4315391	0.86151075
1.4112222281391046e-09	0.8133741	0.19718376	0.5213651	0.27830675	-0.60990167	0.72406036
1.4255128486745416e-09	0.825657	0.2081059	0.49753353	0.37685215	-0.7337086	0.5433377
1.4396736338439657e-09	0.8315067	0.23233318	0.47764415	0.5227088	-0.76767695	0.34252855
1.4530493656802684e-09	0.8303361	0.26393586	0.46458444	0.6979532	-0.68819714	0.15486494
1.4656079447987036e-09	0.82331234	0.29730535	0.45864195	0.86283547	-0.49370462	0.0035402887
1.4767983613541896e-09	0.8128921	0.32675767	0.4588343	0.96496147	-0.2237099	-0.09034345
1.487167078399909e-09	0.8007132	0.35140437	0.46342662	0.9826604	0.08159027	-0.12637627
1.4972140919129789e-09	0.78768855	0.3711483	0.47142488	0.91016144	0.38234717	-0.10435726
1.5074464486205036e-09	0.77436376	0.38583687	0.4824172	0.7563565	0.6398201	-0.02367327
1.5181431685909085e-09	0.76160705	0.39455914	0.49597934	0.55191916	0.8138573	0.11098246
1.5289482621615512e-09	0.7510422	0.39625672	0.5106601	0.3548197	0.8812433	0.27580845
1.5395370632145587e-09	0.7437147	0.39130473	0.52484655	0.20830768	0.8609787	0.44147134
1.5498629156096794e-09	0.73982084	0.38089538	0.5374787	0.121575385	0.7861665	0.59032905
1.5603873375920034e-09	0.7391896	0.365672	0.54826194	0.08481819	0.6764344	0.71991134
1.5711572730832502e-09	0.7417752	0.34662187	0.5564034	0.08776699	0.5433599	0.82536805
1.5822841541310286e-09	0.74736905	0.324886	0.56123805	0.11829251	0.3912884	0.90411973
1.5939046204726948e-09	0.75564927	0.301863	0.56217325	0.16513914	0.22066152	0.95291495
1.6060740796109792e-09	0.7660723	0.2795213	0.5587725	0.21840264	0.033189043	0.9663338
1.6187548676449047e-09	0.7777847	0.2603435	0.5510355	0.27124578	-0.16419303	0.93806857
1.6320050070827316e-09	0.78979385	0.24676397	0.5394669	0.32411623	-0.35951954	0.8625604
1.6457936757907455e-09	0.80081844	0.24106939	0.5252474	0.38689518	-0.53165364	0.73814327
1.660020346268797e-09	0.8094027	0.24464956	0.5102329	0.47719705	-0.6512639	0.5714729
1.674461701075141e-09	0.8141803	0.2572228	0.49671915	0.60837996	-0.68334734	0.38097543
1.6880249998682548e-09	0.81449616	0.27529845	0.48722535	0.7611035	-0.60442615	0.20508558
1.700798092950654e-09	0.8110723	0.2955164	0.48207992	0.9005601	-0.41768196	0.06561847
1.712225868553628e-09	0.80530506	0.31418616	0.4809466	0.98148537	-0.16401841	-0.017650899
1.7228907658210248e-09	0.7981628	0.33050892	0.48282024	0.9865076	0.11843746	-0.04517617
1.7333381201115685e-09	0.790163	0.3442298	0.48714274	0.9118223	0.3937701	-0.017249819
1.744165726429039e-09	0.7815807	0.3550772	0.49375838	0.7655002	0.627427	0.06720266
1.7550451886323885e-09	0.7734455	0.36183304	0.50196564	0.5872463	0.77447665	0.19540516
1.7660345854618979e-09	0.766448	0.36412954	0.5110957	0.42089963	0.8278954	0.34742004
1.7766045657409824e-09	0.7613954	0.36211646	0.5199443	0.30226535	0.80527425	0.49488837
1.7870690942738933e-09	0.75832003	0.35641605	0.5281063	0.23315647	0.7332005	0.62806237
1.7978273227240985e-09	0.7572695	0.34734392	0.5352774	0.2071602	0.6261718	0.7434286
1.8089363698981527e-09	0.75835377	0.3354475	0.5408692	0.21617469	0.49336165	0.83554786
1.8203630985721972e-09	0.7615038	0.32164568	0.54431736	0.24932143	0.3408233	0.89985067
1.832179819783511e-09	0.76649415	0.30700094	0.5452335	0.2959586	0.17154181	0.9327477
1.8445846917119235e-09	0.7730278	0.29266274	0.5433479	0.34827864	-0.012179175	0.92944694
1.8574939753324493e-09	0.7805012	0.2803328	0.538645	0.4016101	-0.19937286	0.8844234
1.870999229815806e-09	0.78822094	0.2715811	0.53143793	0.45912543	-0.37468594	0.7939675
1.8849266567439185e-09	0.79521143	0.26790622	0.5225866	0.53089476	-0.5121143	0.6613107
1.899424913695329e-09	0.8006137	0.27010286	0.51313543	0.63174033	-0.5825396	0.49519497
1.914047800462216e-09	0.8034824	0.27794427	0.50469714	0.7619375	-0.55152416	0.32069248
1.9272711057822527e-09	0.80356705	0.2887449	0.4989746	0.8851533	-0.41819483	0.18012112
1.9398485293177596e-09	0.8014662	0.3009271	0.4957785	0.9722983	-0.19978689	0.083395556
1.9513859768684825e-09	0.79790366	0.31251162	0.494991	0.99331254	0.05601929	0.04274816
1.96256881605919e-09	0.7933177	0.3230561	0.4961747	0.9422668	0.3142759	0.056578152
1.9738539914075483e-09	0.78802115	0.33210537	0.49912456	0.82651144	0.5381255	0.123543724
1.9847861077615748e-09	0.7827425	0.33867133	0.50334835	0.68144935	0.68580186	0.22900563
1.9956924488945688e-09	0.77780926	0.34263277	0.5084959	0.53988755	0.75401235	0.35718918
2.006561145434128e-09	0.77363807	0.34382567	0.5140982	0.42860383	0.75167507	0.4900419
2.0173054488008087e-09	0.7705565	0.34235102	0.5196413	0.35920984	0.6971569	0.61248374
2.02832657349801e-09	0.7686738	0.3383589	0.5248812	0.32883188	0.60425794	0.71963894
2.0397458541027187e-09	0.76816916	0.3320493	0.5294083	0.33194038	0.48190224	0.8056103
2.0515596163289533e-09	0.76913905	0.32387918	0.5327617	0.35978934	0.33689666	0.8648829
2.063687100832973e-09	0.7715124	0.3146114	0.53454655	0.4023082	0.17605132	0.89274937
2.0763340207970805e-09	0.77513254	0.30499175	0.53452474	0.4522236	0.0038698418	0.88526356
2.0896552647492562e-09	0.7797302	0.2959931	0.5325343	0.50637496	-0.17006126	0.837319
2.1035027944655133e-09	0.78477544	0.28891298	0.52868605	0.56662303	-0.325259	0.7472947
2.1177395425695938e-09	0.7896135	0.28485987	0.5234473	0.6406877	-0.43573427	0.6207951
2.132496454248944e-09	0.7936368	0.28451642	0.51746356	0.73735917	-0.4733515	0.4693996
2.1469628548759264e-09	0.7961245	0.2878571	0.5119051	0.84613883	-0.41379616	0.32269746
2.1602888309624116e-09	0.79689336	0.2936086	0.50771666	0.93683076	-0.26729333	0.21088529
2.172931347022497e-09	0.7962239	0.30068868	0.5050011	0.98485565	-0.058747556	0.14408311
2.185157170246948e-09	0.7943826	0.30823195	0.5037705	0.9724388	0.17636994	0.12869044
2.1966729431734738e-09	0.79177606	0.31523037	0.5039265	0.9026865	0.38822	0.1626254
2.207835798795359e-09	0.7887039	0.32130042	0.5052309	0.79559207	0.5501249	0.23571499
2.21877360263534e-09	0.78546107	0.3260903	0.50745505	0.67789173	0.6479035	0.33448806
2.2299630828585944e-09	0.78221095	0.32945177	0.51046634	0.56994367	0.6826223	0.44850093
2.2411623526668403e-09	0.7793147	0.3310544	0.5139377	0.49134797	0.66053784	0.56144774
2.252510061391479e-09	0.7769903	0.33083534	0.51760036	0.44728392	0.5944551	0.663525
2.2642477862792277e-09	0.77541745	0.3287793	0.5212012	0.43568942	0.49388593	0.7484522
2.276436341337908e-09	0.77478254	0.3249783	0.52439857	0.45094937	0.36653212	0.8098272
2.2890145264080652e-09	0.7751919	0.31975853	0.5268197	0.4848141	0.2204553	0.84195334
2.3019945281278102e-09	0.7766285	0.3136298	0.52816665	0.52945155	0.06410912	0.84066284
2.315699076254881e-09	0.779017	0.30712178	0.52822465	0.58134544	-0.09415214	0.80179083
2.329952853255415e-09	0.7820869	0.30115762	0.5268746	0.640111	-0.23392545	0.7241444
2.3446212204335793e-09	0.7854238	0.296657	0.52425766	0.7098069	-0.33027917	0.6135238
2.3597263066506766e-09	0.7885707	0.29433215	0.52072513	0.7941257	-0.35727406	0.48273414
2.3744127871404615e-09	0.7909404	0.29453772	0.5170236	0.88087803	-0.29776183	0.359492
2.3881156790853355e-09	0.79227257	0.29679748	0.51382	0.94698364	-0.16436683	0.26788336
2.4010647582370735e-09	0.7926257	0.30042425	0.5113785	0.97379625	0.015760392	0.21780851
2.4134393323419998e-09	0.7921275	0.30479637	0.50981426	0.9522761	0.20855445	0.21236156
2.4253603386287354e-09	0.79094887	0.3093723	0.50914174	0.8879615	0.3804589	0.24786256
2.4367823989134593e-09	0.7893081	0.313657	0.50929344	0.7996144	0.5063435	0.31389004
2.448094965362627e-09	0.78736025	0.3174262	0.5101651	0.7060615	0.57968736	0.3999039
2.459800918570809e-09	0.78521097	0.32050288	0.51170754	0.62220633	0.60023546	0.49762765
2.471652825287028e-09	0.78311443	0.32252008	0.51375735	0.56317234	0.5715265	0.5931492
2.483866039606599e-09	0.7812509	0.32330403	0.51615524	0.533126	0.502186	0.6778418
2.4964220468220765e-09	0.7798322	0.32273218	0.518659	0.5308284	0.40161288	0.74334943
2.50956589979216e-09	0.7790191	0.32078335	0.5210368	0.55099946	0.2765205	0.7841052
2.5231029032260455e-09	0.7789532	0.3176431	0.52295727	0.5865495	0.13819799	0.79412305
2.537146862558795e-09	0.779667	0.31363764	0.52416825	0.6319884	-0.0022034934	0.7701862
2.5518645608985476e-09	0.7811152	0.30922657	0.52446365	0.68561286	-0.1293162	0.71069026
2.5671954586766575e-09	0.7831235	0.3050772	0.5237309	0.74840736	-0.21997708	0.6193993
2.582773726708082e-09	0.7853514	0.30195108	0.5220806	0.8193854	-0.24870059	0.5102922
2.5976710692921636e-09	0.78733504	0.30039662	0.519941	0.8872061	-0.20407657	0.40839618
2.6117821208493133e-09	0.788828	0.30036896	0.5177269	0.93687546	-0.09707889	0.33139881
2.6251918511138817e-09	0.7897315	0.30158925	0.5157382	0.9546728	0.048977666	0.28926596
2.637994525518082e-09	0.7900414	0.3036966	0.51416624	0.9350027	0.20480162	0.2847486
2.6502322204015356e-09	0.789819	0.3063107	0.5131127	0.8837369	0.34256405	0.3138586
2.6622574137428183e-09	0.78914934	0.30915985	0.5125915	0.8132219	0.44603282	0.36929002
2.674219198790952e-09	0.78812665	0.31197596	0.51260656	0.73887604	0.5056477	0.44176725
2.686629798236724e-09	0.78681767	0.3145864	0.51315653	0.67274106	0.51973236	0.52382094
2.6993628177123388e-09	0.78537184	0.31667197	0.51419944	0.6267946	0.48972896	0.60383654
2.7125255330527134e-09	0.783945	0.31799215	0.5156419	0.60557044	0.42224488	0.67248785
2.726112463738338e-09	0.782718	0.3183533	0.5173245	0.60816157	0.3261266	0.7214868
2.7403779156132013e-09	0.7818488	0.3176521	0.5190681	0.63031995	0.2093782	0.7448367
2.7550492905293086e-09	0.7814971	0.3159412	0.52059543	0.66612506	0.08637549	0.7374221
2.770299071923772e-09	0.7817309	0.31341958	0.5216837	0.71170455	-0.028517503	0.69782156
2.78610255954302e-09	0.78253955	0.31046134	0.52213264	0.76518023	-0.11531845	0.6289119
2.8022184523635377e-09	0.7837886	0.30760282	0.5218486	0.82403934	-0.15212503	0.54139626
2.8174053808422438e-09	0.7851502	0.30548593	0.5209806	0.8778373	-0.12817943	0.45790064
2.832240079422601e-09	0.78644586	0.3042491	0.51973295	0.91806984	-0.049595512	0.39064863
2.8463260318090526e-09	0.78747445	0.30396384	0.5183726	0.93300855	0.06415668	0.35196805
2.859689277973376e-09	0.78815097	0.30448946	0.51710105	0.91891015	0.18786582	0.3447377
2.8725264775124266e-09	0.7884616	0.30562782	0.51604265	0.88013387	0.2997971	0.36582777
2.885219827178068e-09	0.788423	0.307206	0.51526374	0.82557404	0.38575447	0.4096782
2.8979908675354507e-09	0.78805995	0.30904907	0.5148221	0.7667316	0.43625563	0.469096
2.9112718708700987e-09	0.78740025	0.31100467	0.51476085	0.7140702	0.44738132	0.53694725
2.925026540392749e-09	0.7865158	0.31282508	0.5151105	0.67768335	0.41889155	0.60302496
2.9392541805672976e-09	0.7855191	0.3142585	0.5158444	0.6623748	0.35628873	0.65758926
2.954036479214587e-09	0.78454673	0.3150862	0.5168809	0.6677434	0.26804084	0.6926906
2.9695399226731306e-09	0.7837464	0.31514382	0.51808864	0.69049084	0.16443054	0.70212984
2.9854805294160618e-09	0.78327703	0.3143817	0.5192534	0.7256351	0.062006414	0.68247086
3.0020088085112063e-09	0.78322953	0.31290245	0.5201781	0.76963717	-0.022236262	0.63493097
3.0188822605998316e-09	0.7836232	0.31098872	0.5206748	0.81849134	-0.06803081	0.567394
3.0347142821879926e-09	0.7843123	0.30916384	0.52067417	0.8627758	-0.06317801	0.49909523
3.050198747060051e-09	0.7851593	0.30765224	0.52026373	0.8965937	-0.011790567	0.4409583
3.065188072434674e-09	0.7860067	0.3066619	0.5195671	0.9112681	0.07362982	0.40405157
3.079469558834245e-09	0.7867211	0.3062652	0.5187435	0.9027665	0.17181414	0.3934133
3.0931494664776914e-09	0.78723353	0.3064092	0.517924	0.87418336	0.2630311	0.40725133
3.1066614806699126e-09	0.7875202	0.3070086	0.51719034	0.83237493	0.33444455	0.44096795
3.1203959402165805e-09	0.78756535	0.30798045	0.5166122	0.7859421	0.37725428	0.48897728
3.1346611366818247e-09	0.7873606	0.30922252	0.5162596	0.7441786	0.3860306	0.54431975
3.149488300504931e-09	0.78692436	0.31056973	0.5161975	0.7156646	0.35979688	0.597785
3.1649299353756566e-09	0.7863134	0.31181872	0.51645356	0.70499027	0.3030399	0.64015293
3.1810433286359694e-09	0.78562254	0.31275246	0.51700604	0.7124109	0.22448926	0.6634629
3.1979076413105196e-09	0.7849753	0.31317854	0.51777536	0.7352204	0.13656236	0.6620707
3.2151919755273464e-09	0.7845154	0.31298584	0.5186055	0.7687423	0.05734251	0.6347895
3.2329114317206032e-09	0.7843408	0.31221086	0.5193293	0.80846286	0.004479496	0.58629894
3.2495960841641454e-09	0.7844692	0.31112406	0.51976913	0.84566486	-0.0073967846	0.5317739
3.26593174288602e-09	0.78483295	0.3099425	0.519909	0.87541854	0.020602934	0.4816328
3.281929225655787e-09	0.78534293	0.3088829	0.5197628	0.89088017	0.081080794	0.446221
3.2972393526453876e-09	0.78588545	0.30812123	0.51940185	0.88781404	0.15723015	0.4320991
3.3119534385255886e-09	0.78637505	0.3077199	0.51891845	0.86784256	0.23168358	0.4391724
3.3264545164089026e-09	0.78676033	0.30767876	0.5183897	0.8362151	0.29176128	0.46398315
3.341216126246284e-09	0.7870052	0.30798125	0.5178799	0.7997737	0.32879066	0.50185883
3.356524575233859e-09	0.7870767	0.308591	0.51746035	0.7664958	0.33679655	0.54641473
3.3724959244895903e-09	0.7869572	0.3094247	0.51720506	0.74382067	0.31416404	0.58937323
3.3892373282122783e-09	0.78665817	0.31034717	0.5171725	0.73626447	0.26456836	0.6220174
3.4067366003612086e-09	0.78623074	0.3111759	0.5173862	0.74458975	0.19715738	0.6365942
3.4249309363978833e-09	0.7857657	0.31172183	0.51781374	0.76627195	0.1259905	0.6285726
3.443534687312058e-09	0.78537846	0.3118472	0.5183581	0.79657817	0.06880219	0.5989878
3.461209832674578e-09	0.7851716	0.31156197	0.51885825	0.8276949	0.04202008	0.55812025
3.4784680028272095e-09	0.7851567	0.31098542	0.51923335	0.85465014	0.04849781	0.51583886
3.4956033054949687e-09	0.7853182	0.31025407	0.5194315	0.87189597	0.08578744	0.48150036
3.5122372873980608e-09	0.7856041	0.30953705	0.5194348	0.8745325	0.14273289	0.46322182
3.528157252944531e-09	0.7859417	0.30896628	0.5192766	0.8624931	0.20329943	0.46332186
3.5437351263355655e-09	0.78627515	0.3086022	0.51900697	0.83961755	0.25494426	0.47952658
3.559478947242161e-09	0.7865621	0.30847552	0.51867294	0.8114233	0.28888756	0.50791943
3.5758366613061723e-09	0.786763	0.30860388	0.5183258	0.7843871	0.2989459	0.5432389
3.5929289194062093e-09	0.7868401	0.30897504	0.5180308	0.7652901	0.28243253	0.5780239
3.6108580132004926e-09	0.78677315	0.30952632	0.5178541	0.75874555	0.2421675	0.6040757
3.6297080863157184e-09	0.78657097	0.31014267	0.51784647	0.7660706	0.18657579	0.6141788
3.6490195636156796e-09	0.78628707	0.3106592	0.51801765	0.7848396	0.13063316	0.6046463
3.6677849111854996e-09	0.7860123	0.31093657	0.5183078	0.8090811	0.09126572	0.57939225
3.6860213288990743e-09	0.7858116	0.31094593	0.5186361	0.8332274	0.07695914	0.54654336
3.7041803209501494e-09	0.78572005	0.31071573	0.51893586	0.852462	0.08991344	0.5143258
3.722297588589797e-09	0.7857517	0.31031424	0.51914805	0.8617065	0.12635514	0.49109903
3.739786038025544e-09	0.7858863	0.30985555	0.5192362	0.85820687	0.17411116	0.48277313
3.756631592613992e-09	0.7860824	0.30943772	0.5192063	0.8438922	0.21968827	0.48944995
3.773363682335639e-09	0.786303	0.3091205	0.5190806	0.8230386	0.25361124	0.50818104
3.790576377273374e-09	0.78651506	0.30894804	0.5188856	0.8008398	0.26929554	0.53479856
3.808670069516975e-09	0.7866818	0.30895635	0.5186582	0.78310686	0.2626256	0.5634593
3.827626109713825e-09	0.78676534	0.3091523	0.5184523	0.77501655	0.234295	0.58645475
3.847552852110611e-09	0.7867441	0.30949503	0.5183239	0.7788141	0.19098519	0.5967964
3.867390202414375e-09	0.78663105	0.309874	0.51831394	0.79255253	0.1470639	0.59095585
3.886773493957181e-09	0.7864712	0.31018144	0.5184145	0.8114149	0.11550613	0.5720595
3.905860652681836e-09	0.7863128	0.3103517	0.51859033	0.8305532	0.10391509	0.5464057
3.9250278884041655e-09	0.78619546	0.310358	0.51879835	0.84540737	0.114809185	0.5211366
3.9442750748881636e-09	0.7861484	0.3102082	0.51898956	0.85154366	0.14486945	0.50363505
3.96290911837575e-09	0.7861791	0.3099578	0.51911896	0.8470466	0.18315312	0.49889708
3.980896299537069e-09	0.7862709	0.30967653	0.51917094	0.8342061	0.21786997	0.5065739
3.998870741979586e-09	0.7864027	0.30941695	0.51914847	0.8170668	0.2411246	0.5236546
4.017493066000151e-09	0.78655195	0.3092246	0.51906085	0.80029845	0.2476018	0.54595625
4.037180209253332e-09	0.7866903	0.3091432	0.5189278	0.7888935	0.2347153	0.56765914
4.057843208434162e-09	0.78678334	0.30919927	0.5187868	0.7867602	0.20527838	0.5816612
4.078539652528602e-09	0.78680766	0.30936906	0.51868653	0.79417145	0.1697627	0.5828759
4.098870602368522e-09	0.7867681	0.3095882	0.5186548	0.80778253	0.14013043	0.571888
4.11886738293359e-09	0.7866883	0.30978993	0.5186948	0.82324064	0.12486011	0.55315405
4.138993977134409e-09	0.78659606	0.3099246	0.51879317	0.8364192	0.12782347	0.5325088
4.1594481489772565e-09	0.7865206	0.3099585	0.5189251	0.84321976	0.14821967	0.5164732
4.179556961542637e-09	0.7864866	0.30988768	0.5190531	0.841136	0.17819312	0.5105212
4.198924195205324e-09	0.7865008	0.30974418	0.5191472	0.8315952	0.20671377	0.51543707
4.218077973100426e-09	0.7865567	0.30956683	0.51919496	0.8181881	0.22598341	0.5286174
4.237815768945665e-09	0.7866442	0.30939135	0.51919246	0.8049656	0.2312266	0.54627275
4.258696035582218e-09	0.78674823	0.3092578	0.5191421	0.79620063	0.22021192	0.56326973
4.280409563800182e-09	0.7868421	0.30920562	0.5190615	0.7952558	0.19599475	0.57330585
4.302031236934541e-09	0.78690064	0.30924487	0.5189832	0.8020381	0.16814376	0.572587
4.323202694922196e-09	0.7869154	0.30934864	0.51893485	0.81339705	0.14679295	0.56232226
4.344178292262546e-09	0.7868933	0.30947685	0.5189299	0.8254876	0.13838139	0.5467037
4.365461709483942e-09	0.78684837	0.30959016	0.51897013	0.834597	0.14533177	0.53100026