# t (s)	mx ()	my ()	mz ()	m.region1x ()	m.region1y ()	m.region1z ()
0	0	1	0	0	1	0
1.023e-12	-0.024330858	0.9995737	0.01572731	-0.03388955	0.9992678	0.017757783
2.047e-12	-0.04806638	0.99831975	0.0315467	-0.067027725	0.9971083	0.035810072
4.095e-12	-0.09359555	0.99349034	0.06335579	-0.13068561	0.98876363	0.07257206
8.191e-12	-0.17645414	0.9756571	0.1272654	-0.24611004	0.9579404	0.14752822
1.5125778037638698e-11	-0.2906886	0.9263904	0.2344855	-0.4014765	0.8742134	0.27279508
2.2068928581612744e-11	-0.37272844	0.861616	0.33805856	-0.50778383	0.7686799	0.3882649
2.906891647988405e-11	-0.42559415	0.78830767	0.43657035	-0.57370377	0.65582114	0.48943415
3.6269467154848525e-11	-0.45317453	0.70978487	0.53035235	-0.6101575	0.5419066	0.5761316
4.378692729727468e-11	-0.4583242	0.6276413	0.6192416	-0.6259164	0.42881775	0.6490572
5.1634723904668165e-11	-0.443688	0.5430989	0.7017166	-0.6274293	0.31693482	0.7085468
5.972057315318526e-11	-0.41290167	0.45719534	0.7753954	-0.61937565	0.20642881	0.7546356
6.799414255952543e-11	-0.37018016	0.36950362	0.8387232	-0.6049423	0.0965423	0.78760844
7.654421817975266e-11	-0.3189746	0.27760717	0.89112675	-0.5860602	-0.014746257	0.8074443
8.549729562546594e-11	-0.26221162	0.1785347	0.93147576	-0.56410336	-0.12921827	0.8128368
9.475948270984541e-11	-0.20412368	0.07207226	0.957173	-0.54071957	-0.24541618	0.8016798
1.0437041999630623e-10	-0.1476867	-0.04257413	0.9661603	-0.5163814	-0.36338004	0.77199435
1.1431414295739236e-10	-0.09512908	-0.16425985	0.95620406	-0.48988816	-0.48209444	0.7221403
1.233788788652306e-10	-0.052117877	-0.27569062	0.9300596	-0.46169528	-0.5863903	0.6605111
1.319668481583628e-10	-0.013901664	-0.3792181	0.89055157	-0.4278091	-0.6803551	0.58911604
1.4043059354701301e-10	0.024214152	-0.47669378	0.8381115	-0.3837637	-0.76654625	0.50798744
1.4900106221636554e-10	0.067062914	-0.5678725	0.7721485	-0.32454202	-0.84498596	0.4169105
1.573921885858491e-10	0.11735272	-0.6465412	0.6960752	-0.24888992	-0.91023284	0.32107344
1.6562491379676227e-10	0.17869598	-0.7097519	0.61168903	-0.1549859	-0.9594488	0.22250374
1.736896340966819e-10	0.2534415	-0.7537912	0.521243	-0.042381655	-0.988749	0.123178594
1.8157318556580578e-10	0.34216064	-0.7745277	0.4273053	0.08784169	-0.9933409	0.024834251
1.8935988059943707e-10	0.44450983	-0.7674756	0.3315365	0.23460007	-0.96705216	-0.072059155
1.9712439404890393e-10	0.55787355	-0.7270136	0.23606504	0.39460042	-0.90122443	-0.1664887
2.0481273199505828e-10	0.6746894	-0.64857894	0.14518045	0.5579148	-0.7870496	-0.2548251
2.1223826008672856e-10	0.7824493	-0.5334263	0.06485922	0.70662355	-0.62189376	-0.33068886
2.1958969651179768e-10	0.87285954	-0.38175285	-0.0032133362	0.8257971	-0.4011371	-0.38989735
2.269856111838049e-10	0.9353957	-0.19663332	-0.055966467	0.8932689	-0.12670153	-0.42413616
2.343718572993056e-10	0.9590119	0.010177365	-0.089154705	0.88428754	0.17987458	-0.42192605
2.4166955124614875e-10	0.9383936	0.22130263	-0.1002093	0.78764695	0.47915444	-0.3746523
2.4891363119472116e-10	0.8751769	0.4213	-0.08880997	0.61383253	0.729858	-0.28051063
2.561780457935778e-10	0.77590823	0.5974097	-0.055755954	0.39270112	0.9004261	-0.14597006
2.6341524245305234e-10	0.65303737	0.73787355	-0.0036876523	0.16741414	0.978242	0.012089215
2.707207640813475e-10	0.5188942	0.83917	0.064576976	-0.02987395	0.97605896	0.1767744
2.7819061387276903e-10	0.38533378	0.9012103	0.14617012	-0.18213235	0.9167059	0.33430815
2.8591162369908757e-10	0.26311833	0.9264529	0.23808095	-0.28613064	0.8232606	0.4760499
2.939649118809499e-10	0.16123115	0.9191529	0.33715087	-0.347356	0.7132292	0.59848076
3.0215686979673555e-10	0.08826135	0.8858327	0.43684167	-0.37420177	0.60061795	0.6987216
3.105592797264015e-10	0.04529679	0.8328533	0.5342942	-0.37729946	0.48923764	0.7803135
3.193197505070264e-10	0.03140402	0.7637621	0.6277592	-0.3643098	0.37790847	0.84667414
3.2858556926781567e-10	0.045051616	0.67957425	0.71509945	-0.34068394	0.2635162	0.8993228
3.3825709053504455e-10	0.08263101	0.5817222	0.7915274	-0.31178415	0.14484628	0.9369258
3.4831407636320463e-10	0.13822885	0.470027	0.8531627	-0.28247687	0.019314658	0.9576568
3.5840605603316126e-10	0.20247087	0.3484815	0.8951379	-0.25753406	-0.11065415	0.95874625
3.683819922439302e-10	0.26725465	0.22075887	0.91588104	-0.23893909	-0.24307317	0.9387541
3.783925259061598e-10	0.32858565	0.088405415	0.9153279	-0.22561888	-0.37794292	0.89591926
3.885937143804544e-10	0.38490522	-0.04556683	0.89285433	-0.21398039	-0.5136939	0.8278249
3.987565741917148e-10	0.43539286	-0.17160264	0.8495066	-0.19789465	-0.64235675	0.7360279
4.08585653633417e-10	0.48190176	-0.27971897	0.78957427	-0.1699919	-0.7554429	0.62684345
4.1848971387804447e-10	0.5309011	-0.3682634	0.7140031	-0.12090542	-0.8526966	0.500441
4.282429817789641e-10	0.58559734	-0.42910445	0.6280913	-0.044362694	-0.9260027	0.3646359
4.3753586893050327e-10	0.6462498	-0.4571406	0.53934056	0.059502393	-0.9679446	0.2293504
4.466546391871103e-10	0.71381164	-0.4513857	0.44970208	0.19220774	-0.973577	0.09512901
4.556323235264754e-10	0.7849569	-0.40975213	0.3632443	0.34967974	-0.9333175	-0.034541953
4.64627687615201e-10	0.85444105	-0.33032775	0.28302115	0.5248617	-0.8335169	-0.1574623
4.734351267652084e-10	0.9119769	-0.21718368	0.21532801	0.69547766	-0.664355	-0.26472726
4.822165317299799e-10	0.94939446	-0.07482722	0.1629152	0.8361821	-0.41676307	-0.34910503
4.910089673322411e-10	0.95862937	0.087461576	0.12920932	0.9094229	-0.096221894	-0.39675626
4.998037439280242e-10	0.935115	0.25611067	0.116719514	0.877383	0.264191	-0.3901775
5.083296003600006e-10	0.88200766	0.41160208	0.12554954	0.7318232	0.5932264	-0.31909946
5.169079927957342e-10	0.8046475	0.5477092	0.15413503	0.4981037	0.8394783	-0.18402284
5.257043538003875e-10	0.7107833	0.6570883	0.20116428	0.2302354	0.9653246	0.00064841844
5.342398206688459e-10	0.6170129	0.7300882	0.2601136	0.0033233676	0.97291404	0.19438195
5.43057290529915e-10	0.52809274	0.7717291	0.3302322	-0.1644735	0.9010822	0.38205698
5.518948405987298e-10	0.45510966	0.7827153	0.40529636	-0.26391628	0.7888531	0.54248023
5.604687029261241e-10	0.4040928	0.7688034	0.47868833	-0.30911568	0.66720754	0.6685505
5.688589973780886e-10	0.37423804	0.7362989	0.5478417	-0.32000193	0.54725134	0.7663396
5.773465878359338e-10	0.36324155	0.6882197	0.61249495	-0.30980837	0.42824206	0.84338516
5.861662669476927e-10	0.36962858	0.6252463	0.6717613	-0.28613138	0.30661324	0.9034893
5.954659766143357e-10	0.39196527	0.54725873	0.723466	-0.25439644	0.17857088	0.9470649
6.050426045000589e-10	0.4267477	0.45713586	0.76338774	-0.22055715	0.044680107	0.97151464
6.149768708087528e-10	0.47018322	0.3561037	0.7891431	-0.18877645	-0.097802736	0.9744625
6.251375864648694e-10	0.517598	0.24864806	0.79817337	-0.16218604	-0.24689269	0.95238304
6.356282399169147e-10	0.566182	0.13843288	0.7890593	-0.14035812	-0.40141392	0.90125895
6.464057757723086e-10	0.6139996	0.032400925	0.76111656	-0.119094945	-0.5550657	0.8180876
6.575097547074439e-10	0.66135275	-0.061726734	0.7148005	-0.088960044	-0.699903	0.7017315
6.685970763068684e-10	0.70838654	-0.13286328	0.6541936	-0.038083553	-0.82161266	0.5596022
6.797136039418423e-10	0.75696063	-0.17445847	0.583493	0.04611504	-0.9103632	0.3989527
6.906407157805056e-10	0.8061229	-0.18116662	0.5094602	0.16948432	-0.95311785	0.23225628
7.013584232630307e-10	0.85315835	-0.15200576	0.43792993	0.3305539	-0.9371681	0.068830885
7.118481265109774e-10	0.89304113	-0.08939881	0.37430528	0.5175448	-0.84760475	-0.0829631
7.22209763759877e-10	0.9200156	0.0017468925	0.32257032	0.7080655	-0.66758865	-0.21548589
7.323634113850113e-10	0.92845386	0.111971356	0.28658456	0.8611784	-0.3902332	-0.314721
7.423166851314811e-10	0.91574144	0.23013157	0.26810777	0.9268899	-0.03126612	-0.3624301
7.513608766182833e-10	0.88594794	0.3366962	0.2667187	0.87385195	0.32833666	-0.34314752
7.600140399082299e-10	0.84362864	0.4301701	0.27882606	0.7150032	0.6396089	-0.25735256
7.688430974309646e-10	0.790978	0.5108807	0.30343786	0.4787178	0.8623902	-0.10700878
7.775555043516655e-10	0.73511255	0.5720563	0.33783245	0.233078	0.9604953	0.08036525
7.860933558445548e-10	0.68193173	0.61249137	0.37884605	0.03176732	0.95322704	0.27192
7.946990900764738e-10	0.63445354	0.63377345	0.424869	-0.10887533	0.8779947	0.44939056
8.032230321826848e-10	0.5967334	0.6368763	0.4725053	-0.18893778	0.76972675	0.5982566
8.116626840898997e-10	0.57031	0.6242536	0.5193184	-0.22345813	0.65031886	0.7173879
8.200065088750654e-10	0.555366	0.5985352	0.5632131	-0.2276936	0.5297123	0.8101551
8.284684843559943e-10	0.5510305	0.5611521	0.60352814	-0.21283443	0.4075708	0.8823767
8.372512566996176e-10	0.55667305	0.5125388	0.63931084	-0.18574643	0.28062275	0.93694687
8.464319550251238e-10	0.57151765	0.4534576	0.6687154	-0.1517501	0.1462212	0.9734666
8.559017869999537e-10	0.5938633	0.38637558	0.6893641	-0.116158426	0.0044203727	0.989482
8.657117108411408e-10	0.6218705	0.31347963	0.69966143	-0.08267882	-0.14600681	0.98204875
8.757334979324297e-10	0.6532097	0.23911381	0.6983286	-0.05361304	-0.30146176	0.94773006
8.860437342269372e-10	0.6865225	0.16694978	0.6849094	-0.027348047	-0.45869073	0.8830069
8.965651147357453e-10	0.7205472	0.102443874	0.659823	0.001559318	-0.60915595	0.78650504
9.073814168625007e-10	0.75503093	0.05045871	0.6240808	0.04345112	-0.7440326	0.6583585
9.182811241668513e-10	0.7889075	0.017001528	0.5806761	0.110046	-0.84902877	0.50598806
9.291046255546514e-10	0.8209167	0.005688195	0.5336027	0.210422	-0.9108655	0.34045497
9.397873663638193e-10	0.84936243	0.017408002	0.48686075	0.34719452	-0.9169073	0.17285186
9.504499625100198e-10	0.8722278	0.051313248	0.4435455	0.51606816	-0.8519829	0.011244051
9.60869990175943e-10	0.8864405	0.10336687	0.4076866	0.6948212	-0.70223236	-0.13068996
9.711614073052169e-10	0.8900797	0.16875094	0.38119012	0.851639	-0.4572351	-0.24182153
9.81388451420323e-10	0.8819586	0.24166763	0.3654862	0.94011813	-0.1223797	-0.30464324
9.908544354885188e-10	0.8640306	0.3104825	0.36120427	0.91880035	0.23466472	-0.30030307
9.997608725304588e-10	0.83927083	0.37161872	0.3661598	0.79229563	0.5540661	-0.22838986
1.0086732534626812e-09	0.80898225	0.42543015	0.37921184	0.5857644	0.7956174	-0.09254905
1.01756231543344e-09	0.7759905	0.4688977	0.39918315	0.35382995	0.9224747	0.086785175
1.0261789266272249e-09	0.74409246	0.4996012	0.42377567	0.15586664	0.9404289	0.27432287
1.034681246312219e-09	0.7151073	0.5181675	0.45156312	0.013784756	0.8850398	0.44889662
1.0430884641371814e-09	0.6907519	0.52514446	0.48093548	-0.07150211	0.78952247	0.5981804
1.0514620100897773e-09	0.6720182	0.52146494	0.51057196	-0.111503385	0.6758267	0.7199394
1.0599301587867065e-09	0.6593541	0.50796765	0.53951156	-0.11932212	0.55375385	0.8170931
1.0684643954609533e-09	0.6530917	0.48570067	0.56632644	-0.10556096	0.4280975	0.89160967
1.0772409567704772e-09	0.6530634	0.45525742	0.5902592	-0.07799732	0.29692182	0.94648856
1.086433399175584e-09	0.6591484	0.4169997	0.61030364	-0.041993182	0.15674265	0.9819792
1.0958332314430524e-09	0.67064065	0.37324157	0.62464076	-0.0033851892	0.00989022	0.99535817
1.105610696869573e-09	0.686828	0.32519293	0.63238174	0.03463858	-0.14591925	0.9839627
1.1156474390828055e-09	0.7064786	0.2759356	0.6325383	0.06979689	-0.3061738	0.94417095
1.1259281053075596e-09	0.72845656	0.22854578	0.6247962	0.103554964	-0.46492442	0.87311345
1.136417095563294e-09	0.75167835	0.18647823	0.60945344	0.14151482	-0.6127917	0.7700038
1.14714093673442e-09	0.7752944	0.15300329	0.5873401	0.19346054	-0.73857266	0.63665247
1.1580923641248563e-09	0.7983589	0.13133939	0.55993354	0.27106538	-0.82821053	0.47902206
1.168974796485336e-09	0.81920344	0.124076165	0.53011376	0.3806305	-0.86506635	0.31136048
1.1797555786905599e-09	0.83660346	0.13150471	0.5004157	0.52148896	-0.83565825	0.14612602
1.190607393811965e-09	0.8494568	0.15301363	0.4727496	0.6845619	-0.72392875	-0.0066912747
1.2012989001331428e-09	0.8561947	0.18603961	0.44980928	0.84003353	-0.5201575	-0.12975341
1.211395255578455e-09	0.8562269	0.225265	0.43364555	0.944464	-0.2416882	-0.20477581
1.2212172285651952e-09	0.85001326	0.26776072	0.4240394	0.966362	0.087223925	-0.22184455
1.230544545632194e-09	0.838685	0.30903074	0.42094114	0.89071053	0.4061389	-0.17374058
1.2397088944891213e-09	0.8232074	0.3476799	0.4236089	0.7324769	0.6678748	-0.06344121
1.249007655862651e-09	0.80436707	0.3825148	0.4317134	0.5276188	0.83532	0.098017275
1.2579075592113703e-09	0.78483903	0.4098964	0.4438934	0.3389218	0.8921502	0.2743482
1.2664731706545225e-09	0.7660707	0.42959318	0.4588824	0.19634064	0.86836356	0.44088975
1.2748619737821011e-09	0.74893856	0.4419652	0.4757843	0.10412252	0.7959032	0.5862569
1.2832053908912173e-09	0.7341217	0.44732296	0.49386367	0.055110246	0.69691086	0.7071865
1.2916751183423822e-09	0.7221071	0.44587228	0.51257414	0.03911556	0.58278435	0.80514044
1.300390542197406e-09	0.71342814	0.43765274	0.5312447	0.047305953	0.45825723	0.8817811
1.3093255258467034e-09	0.70861626	0.42296517	0.5488293	0.07207018	0.32597712	0.9372837
1.3185738126382025e-09	0.7078887	0.40220848	0.56447816	0.10729295	0.18491936	0.97174376
1.3281425414777719e-09	0.71128297	0.3762042	0.57714707	0.14781588	0.035109658	0.98325366
1.3380281704358139e-09	0.7185483	0.3462076	0.5858549	0.18967311	-0.12201023	0.96886206
1.3482848903162168e-09	0.7292502	0.31370988	0.5898057	0.23117359	-0.2833985	0.92483646
1.3587879805309998e-09	0.7425704	0.28116825	0.5884295	0.27314118	-0.43974087	0.84890383
1.3695521297636578e-09	0.75769913	0.25087517	0.5816492	0.3210437	-0.580314	0.74071217
1.3805566975727963e-09	0.77373195	0.22532907	0.56983274	0.38368395	-0.69075817	0.60386467
1.3918061918537578e-09	0.7897503	0.2068511	0.55379695	0.47078136	-0.7546299	0.4462711
1.403043799067265e-09	0.8044326	0.1975177	0.535247	0.5850412	-0.7543082	0.28392795
1.4142302254845546e-09	0.8168025	0.19794351	0.51590186	0.7199475	-0.67638683	0.13213848
1.4251160826891847e-09	0.82582146	0.20748067	0.49781865	0.8529577	-0.5161367	0.008962532
1.4355678231770062e-09	0.8309747	0.22419748	0.48249787	0.9530413	-0.28367412	-0.071342506
1.4455803097448487e-09	0.83223164	0.24576609	0.47072494	0.9914791	-0.0051407665	-0.09898593
1.4552441651441342e-09	0.8298545	0.27009284	0.46275693	0.95290834	0.28030515	-0.0691979
1.4645760038124836e-09	0.82432085	0.29515845	0.45862186	0.84451264	0.52600235	0.014543978
1.4738197234496661e-09	0.81607306	0.31985256	0.45810765	0.69169253	0.7006983	0.14167678
1.4831587053296685e-09	0.8055608	0.34308928	0.46110559	0.5290568	0.78896147	0.29554328
1.4921704618075377e-09	0.7940949	0.36258644	0.46704987	0.39581856	0.7960054	0.44727775
1.5008629233127726e-09	0.78258026	0.37773502	0.47519267	0.30439436	0.7484417	0.58150905
1.509487982289739e-09	0.7714536	0.38859898	0.48509163	0.25114658	0.6673061	0.6949691
1.51826096399967e-09	0.761131	0.39504433	0.49641922	0.2293547	0.564442	0.78755903
1.527353590073748e-09	0.7521109	0.39673916	0.5088111	0.23237836	0.44545308	0.8595678
1.5367047113914476e-09	0.7451091	0.39338797	0.5214972	0.2537204	0.31509343	0.9095513
1.546325559872678e-09	0.74062276	0.3850432	0.5337163	0.2872059	0.1754442	0.93660545
1.5562452412195349e-09	0.7389732	0.37203056	0.54468477	0.32785347	0.028200492	0.9390092
1.5666831299180337e-09	0.7403483	0.35462755	0.5537493	0.37307325	-0.12626715	0.9134836
1.5775610385651102e-09	0.74477476	0.33389533	0.55993307	0.42127335	-0.27990842	0.85644454
1.5886777660086607e-09	0.75184554	0.31166822	0.56247926	0.47351885	-0.41906285	0.7678711
1.6000900988170346e-09	0.761025	0.28960496	0.56108874	0.5353356	-0.53004235	0.6501474
1.6118349204162497e-09	0.77164954	0.26958585	0.5557316	0.61369807	-0.59555846	0.5102139
1.6238552093652145e-09	0.7828561	0.25367785	0.5468042	0.7119925	-0.5964392	0.3615428
1.6358655330660514e-09	0.79350007	0.24377747	0.5353925	0.82190514	-0.5185147	0.22474591
1.646868026917573e-09	0.8020459	0.240656	0.5237713	0.91656685	-0.3739512	0.12545139
1.6574003879617246e-09	0.808583	0.24311948	0.5125398	0.97983074	-0.17653807	0.06700498
1.6677946048922726e-09	0.81301904	0.2504587	0.50219584	0.994562	0.055004645	0.05492643
1.6778921835564418e-09	0.8151112	0.261597	0.49355662	0.9518135	0.28290865	0.09192943
1.6875890582839748e-09	0.81492335	0.27514395	0.48709366	0.8625843	0.46991023	0.17032297
1.6970707477130084e-09	0.81267416	0.29011682	0.4828612	0.74870366	0.5968006	0.2775046
1.7065914552553916e-09	0.8085285	0.3058292	0.48088187	0.63278574	0.6582603	0.40027276
1.7160784532093184e-09	0.8028255	0.32112712	0.48121238	0.53623676	0.6588249	0.5221335
1.7254661979622948e-09	0.7960572	0.3349692	0.4836961	0.46966138	0.61325246	0.6306107
1.73493866041224e-09	0.78859735	0.34681508	0.48813668	0.43278083	0.5355027	0.7211779
1.7447345923296886e-09	0.780791	0.356152	0.4943976	0.42191753	0.43396425	0.7920688
1.7547494322703609e-09	0.77331156	0.36216152	0.5020534	0.43228164	0.3168969	0.840108
1.7649440026384093e-09	0.7667755	0.3643854	0.51055664	0.45788613	0.19027497	0.86400574
1.7755379977704524e-09	0.7616049	0.36259755	0.51948076	0.4943732	0.056268256	0.8626507
1.7864504613525761e-09	0.7583294	0.35676485	0.52806294	0.53804773	-0.077974744	0.8341284
1.7976446875134967e-09	0.7572596	0.3472679	0.53554857	0.5871174	-0.20339644	0.7780068
1.808989669839921e-09	0.7584578	0.33497933	0.54120725	0.6414097	-0.30754033	0.6971076
1.820758983875539e-09	0.7618377	0.3206201	0.5446144	0.70409113	-0.37921986	0.59460205
1.8330026685223224e-09	0.7671775	0.30538356	0.5452975	0.77671796	-0.4023343	0.479068
1.845393991026478e-09	0.77385	0.29115906	0.54309464	0.85389835	-0.36323586	0.36759612
1.8573058451484143e-09	0.78082633	0.27989906	0.5385647	0.92119384	-0.2645834	0.28048837
1.8685824949061715e-09	0.78737295	0.2723167	0.532581	0.96460295	-0.1234099	0.22818403
1.879540973667905e-09	0.79319906	0.2683493	0.52574205	0.9749083	0.04179904	0.21351166
1.8903305447988085e-09	0.7980131	0.26793095	0.51860356	0.9477621	0.20779829	0.23692499
1.9008546194397543e-09	0.8015087	0.27078202	0.51180905	0.88903904	0.34797248	0.29304597
1.9112804974305444e-09	0.80357665	0.27645898	0.5057432	0.81194735	0.4462947	0.37258396
1.9215854201656504e-09	0.80413306	0.28434223	0.5008155	0.73347974	0.4949677	0.46288028
1.9319009847574897e-09	0.80319524	0.29382607	0.49726552	0.66666365	0.49697527	0.5529497
1.942199922661643e-09	0.8008672	0.30411968	0.49530545	0.61968285	0.46065274	0.63303614
1.9528474826952236e-09	0.7972232	0.3147823	0.4950265	0.5938322	0.39394394	0.69903874
1.96366111915214e-09	0.7925793	0.32477784	0.49650562	0.5887089	0.306634	0.7451493
1.9745789150941826e-09	0.78736424	0.33324248	0.4996016	0.600483	0.20768385	0.76905805
1.9856510284856886e-09	0.7820246	0.3395354	0.50405407	0.624896	0.10424068	0.77020365
1.9972781347786874e-09	0.77688575	0.3432248	0.5096815	0.6596785	0.00044471739	0.7477093
2.009180729522358e-09	0.77260906	0.34373474	0.51587534	0.70176727	-0.09174397	0.702463
2.0212676092553694e-09	0.7696606	0.34101242	0.52199006	0.7490688	-0.16132127	0.6386071
2.033715987748983e-09	0.768309	0.33526385	0.5274876	0.8005533	-0.19851589	0.5618518
2.0467719107565125e-09	0.76875085	0.3268371	0.53181773	0.8538832	-0.19291033	0.48050007
2.0599599101285457e-09	0.77094	0.31691012	0.5342916	0.9002528	-0.139472	0.41036105
2.072764120143715e-09	0.77439433	0.3070457	0.53469336	0.92912245	-0.048473608	0.36521664
2.0851472327124194e-09	0.77856153	0.298312	0.53325874	0.9342353	0.061752845	0.35028875
2.0972651663782537e-09	0.78299284	0.29135928	0.53034407	0.9146715	0.1718324	0.364987
2.1092215726853613e-09	0.7872914	0.28664756	0.5263521	0.87525576	0.2637824	0.4045345
2.121023456989978e-09	0.791088	0.2844477	0.5217484	0.825782	0.3245462	0.46037424
2.132969247921116e-09	0.7941526	0.2848123	0.51689017	0.7761626	0.34951738	0.5238572
2.1449395791430773e-09	0.7961841	0.2876492	0.51229775	0.736197	0.3392168	0.5845342
2.156793454915374e-09	0.797016	0.29252204	0.50844675	0.71126413	0.3008397	0.6339738
2.1690083783568607e-09	0.7966018	0.2990993	0.5055586	0.7017848	0.24121292	0.66866916
2.1813387491743847e-09	0.79496264	0.30658764	0.50399655	0.7069933	0.17016734	0.68445855
2.1938173730676533e-09	0.792278	0.3141974	0.50389665	0.72410685	0.096730866	0.68058664
2.2066638025310592e-09	0.78879046	0.32121402	0.50528246	0.75052804	0.028881803	0.6577448
2.2198496711730065e-09	0.78490615	0.326787	0.5080324	0.7833155	-0.023618087	0.61874026
2.233448960902824e-09	0.78109497	0.3302251	0.51186275	0.81928605	-0.051831678	0.56888956
2.247422911403015e-09	0.77788615	0.33102486	0.516298	0.85382015	-0.048711866	0.516665
2.262002068071829e-09	0.7757148	0.32898545	0.5208164	0.8811536	-0.011662069	0.4717233
2.2762593754792585e-09	0.77496994	0.32460007	0.5245322	0.89341336	0.049816545	0.44604206
2.290189129224069e-09	0.775566	0.31873074	0.52704775	0.8883565	0.12028617	0.44299355
2.3038827325736232e-09	0.77726793	0.31224853	0.5281917	0.8681813	0.18421964	0.46073306
2.3176685225445423e-09	0.77981657	0.30585963	0.52794194	0.83823824	0.2300477	0.4942746
2.3315603252262338e-09	0.7828665	0.30036145	0.5263791	0.8063715	0.24975497	0.5357929
2.3457112014337622e-09	0.7860557	0.29640284	0.52371633	0.77992153	0.24171408	0.5767954
2.3599809004635188e-09	0.7889415	0.2945322	0.5203557	0.7643328	0.21010415	0.6088299
2.374292433877992e-09	0.79114234	0.29493892	0.51679903	0.76128846	0.16356044	0.62635005
2.388819082818431e-09	0.79240084	0.29750794	0.51350856	0.7697689	0.1115464	0.6271514
2.4035809546740506e-09	0.79254305	0.3018475	0.510952	0.78736144	0.064323574	0.61163306
2.418710491970374e-09	0.79153794	0.3073367	0.50949466	0.81082183	0.031386722	0.5829888
2.434118629668293e-09	0.7895403	0.31307918	0.5093768	0.8356218	0.02079593	0.54768544
2.4498613158825875e-09	0.7868768	0.31815156	0.51061213	0.8564561	0.035969336	0.5141309
2.4659145013820203e-09	0.78401846	0.3216905	0.5129847	0.8676378	0.073876776	0.49125943
2.4816850446052377e-09	0.7815646	0.32308602	0.51595205	0.86554605	0.122398995	0.48550978
2.4970146866319996e-09	0.77989125	0.3223729	0.5189385	0.851744	0.16712306	0.49656186
2.512210902296151e-09	0.77914333	0.3198878	0.5215324	0.83091086	0.19770229	0.5200253
2.5277354821338877e-09	0.779372	0.31602895	0.5234185	0.80872566	0.20795445	0.5499814
2.5439328199467036e-09	0.78056526	0.3113258	0.5242975	0.7911132	0.1953394	0.57920915
2.560520457345117e-09	0.78251696	0.30666965	0.5239678	0.78313035	0.1633728	0.5993371
2.5775034431715592e-09	0.7848705	0.3029267	0.52249146	0.78635645	0.12095574	0.60491294
2.5947360011930083e-09	0.7871596	0.3008389	0.52018225	0.79936045	0.080174886	0.5944354
2.6117849567854513e-09	0.7889087	0.30075747	0.51758933	0.8180237	0.053144153	0.5716873
2.6287956012042833e-09	0.7898468	0.30253336	0.5152153	0.83752936	0.046780694	0.5435142
2.645991561647574e-09	0.78984606	0.30574304	0.51348233	0.8527538	0.06303037	0.5179008
2.6632658857982506e-09	0.7889454	0.3096704	0.5127137	0.85875195	0.097205065	0.50277215
2.6801190010489305e-09	0.7874235	0.31339243	0.51298815	0.85353184	0.13732392	0.5024808
2.6964614484204135e-09	0.7856567	0.31623468	0.51411235	0.8395936	0.1709568	0.5155168
2.712757005853078e-09	0.7839495	0.31785887	0.51582336	0.82150203	0.19015084	0.53740096
2.729559124673534e-09	0.78256714	0.31805238	0.5178479	0.80432063	0.19047368	0.5625258
2.7471552033657416e-09	0.7817832	0.31671908	0.5198291	0.79314137	0.17115374	0.5839843
2.765345970930706e-09	0.78180134	0.3140923	0.5213209	0.79155064	0.1374653	0.5947346
2.783598012695527e-09	0.7825994	0.31083637	0.5219724	0.7995699	0.10057849	0.59124666
2.8016687253563654e-09	0.78393495	0.30773598	0.5217061	0.8140916	0.07204437	0.57537836
2.81964680566757e-09	0.78548616	0.30542088	0.52066356	0.83082956	0.05986667	0.5525251
2.8377995897085982e-09	0.7869349	0.30430633	0.51910716	0.8451796	0.06751083	0.52962846
2.8562198659976253e-09	0.78798	0.3045885	0.5173947	0.8525121	0.09292477	0.51403254
2.874364333862665e-09	0.7883985	0.30609897	0.5159584	0.8500821	0.12669845	0.5109899
2.8919235947336595e-09	0.78818005	0.30833498	0.5150869	0.8394205	0.15684968	0.5202091
2.9092907889378136e-09	0.78744555	0.31079197	0.51487136	0.8245519	0.17521983	0.5377688
2.9270685927105886e-09	0.7863523	0.31302762	0.5153183	0.8100464	0.17745559	0.5585417
2.9456697253679987e-09	0.7851162	0.3145839	0.5163581	0.80043906	0.1626591	0.57642955
2.9648853820668065e-09	0.78404754	0.31504613	0.51775634	0.79904395	0.13541293	0.5851739
2.984067701117347e-09	0.78343576	0.3143248	0.51912636	0.80583286	0.105813585	0.5818633
3.003052282626593e-09	0.78339213	0.31270292	0.5201386	0.8178714	0.08378649	0.5685208
3.0220752577059746e-09	0.7838797	0.31062102	0.52059895	0.8312704	0.07582783	0.55002755
3.041422558960291e-09	0.7847639	0.30857366	0.5204333	0.8418614	0.08434546	0.5325869
3.061110568723712e-09	0.7858181	0.3070668	0.5197047	0.8458106	0.10635406	0.52246577
3.0804474882539303e-09	0.78674334	0.30647463	0.51866186	0.8417123	0.1325443	0.5231887
3.0992173344239628e-09	0.7873341	0.30681697	0.5176085	0.831923	0.153049	0.5331518
3.1180207844088984e-09	0.7875098	0.30791822	0.51676536	0.8202533	0.1621144	0.5482569
3.137470221564799e-09	0.7872465	0.30952132	0.5163101	0.81069547	0.15734106	0.5635165
3.157762726025745e-09	0.78660166	0.3112301	0.51637405	0.80675775	0.14034654	0.57342625
3.1781941986622114e-09	0.7857794	0.31252435	0.5169358	0.8097485	0.118319035	0.5740852
3.1983782022402025e-09	0.78503466	0.31307068	0.5177967	0.81780106	0.100152306	0.566065
3.218554669842749e-09	0.7845556	0.3127996	0.5187121	0.82765365	0.09200976	0.5530582
3.2391291054941434e-09	0.78445446	0.31182224	0.5194508	0.8357671	0.09645318	0.5400814
3.2602009578949954e-09	0.78475493	0.3104243	0.5198148	0.8389128	0.111550786	0.53237146
3.2811068340538693e-09	0.7853435	0.30906284	0.5197183	0.8358779	0.13005881	0.5330135
3.3014535137508233e-09	0.78601784	0.30812526	0.51925176	0.82866305	0.14380334	0.54068357
3.321878719392623e-09	0.7866092	0.30779132	0.5185746	0.8205209	0.148257	0.5517138
3.3430890992910115e-09	0.78697485	0.30812797	0.5178688	0.81470114	0.14215116	0.56174797
3.365096054477636e-09	0.78700393	0.30904132	0.5173551	0.8137328	0.12822324	0.56638736
3.3869493012217792e-09	0.786707	0.3101848	0.5172076	0.8177083	0.11357119	0.56374246
3.408547360212384e-09	0.7862169	0.3111769	0.5174364	0.824317	0.10470136	0.5558094
3.4303563737229194e-09	0.78569806	0.31174237	0.5179473	0.83060294	0.10488536	0.546421
3.452800842310766e-09	0.7853145	0.31172198	0.5185815	0.83378536	0.11376727	0.5398542
3.4755603183192055e-09	0.78519976	0.3111374	0.51912355	0.8323261	0.12664779	0.5392988
3.4976474981815094e-09	0.7853712	0.3102538	0.51939577	0.82744104	0.13649784	0.54438895
3.5196139763169522e-09	0.7857464	0.30936566	0.5193592	0.82181555	0.13929772	0.55209607
3.5424912034638083e-09	0.7862157	0.3087241	0.51904225	0.818052	0.13413958	0.55884475
3.5659754746432903e-09	0.786618	0.30855575	0.51856446	0.81808835	0.12378659	0.5611113
3.5888087023480896e-09	0.78681177	0.30887726	0.51813	0.8215216	0.11431808	0.5580779
3.61071959507237e-09	0.78677523	0.30949306	0.51788056	0.8261531	0.11015729	0.5520763
3.631828128465952e-09	0.78656673	0.31016326	0.51786095	0.8297766	0.112267114	0.5462442
3.652219245005623e-09	0.7862784	0.3106892	0.5180414	0.8310494	0.118818246	0.54297036
3.672125117037343e-09	0.78600127	0.31095558	0.5183487	0.82978135	0.12665904	0.5431703
3.691853492338457e-09	0.7858058	0.31092614	0.5186964	0.82670957	0.13271832	0.5463991
3.7113837092054383e-09	0.78573716	0.3106357	0.5189966	0.8231714	0.13486128	0.5511678
3.730674059709857e-09	0.7858028	0.3101808	0.51918346	0.8205313	0.13266367	0.55557674
3.7499438343346666e-09	0.7859788	0.30967999	0.5192275	0.8196442	0.12724715	0.5581043
3.769248935863048e-09	0.78621894	0.30925417	0.51913214	0.820708	0.120732576	0.557961
3.788422167267555e-09	0.7864623	0.3090002	0.51893574	0.82320553	0.11554811	0.5553708
3.8076721978074335e-09	0.7866564	0.30896077	0.51869506	0.82619613	0.11341753	0.5513769
3.826774940636968e-09	0.7867608	0.30912602	0.518477	0.8285744	0.11495032	0.54751426
3.84581581316242e-09	0.7867629	0.30943644	0.5183338	0.8295513	0.11938312	0.545119
3.864955555138948e-09	0.7866734	0.30980724	0.5182961	0.8288447	0.12504262	0.5449501
3.88403513504431e-09	0.7865247	0.31014037	0.51836926	0.8267884	0.12982959	0.5469551
3.9030953454122934e-09	0.78636056	0.31035748	0.51853	0.82418877	0.1321279	0.55030185
3.9220976245576805e-09	0.7862252	0.31041363	0.5187364	0.82199764	0.13129272	0.55373865
3.941084090077279e-09	0.7861518	0.3103057	0.5189396	0.8209424	0.127809	0.55608195
3.959971626953958e-09	0.78615665	0.3100703	0.51909477	0.82130504	0.12304411	0.5565975
3.978807209834479e-09	0.7862357	0.30976984	0.51917315	0.82286483	0.11867198	0.5552339
3.99762209880818e-09	0.78636867	0.309476	0.5191659	0.8250324	0.11612386	0.55256027
4.016403673141526e-09	0.7865242	0.30925387	0.5190843	0.82705456	0.11614663	0.54954815
4.035186758207655e-09	0.7866688	0.3091463	0.5189557	0.8282693	0.11859134	0.54722005
4.053956743238182e-09	0.7867735	0.3091672	0.51881653	0.82830983	0.12250495	0.5463188
4.072674412516008e-09	0.7868208	0.3092991	0.51870275	0.8272293	0.12648703	0.54705805
4.091413491005943e-09	0.78680795	0.30950114	0.5186413	0.82545215	0.12922314	0.5490942
4.110164920811944e-09	0.7867459	0.3097192	0.5186455	0.8236158	0.12987925	0.5516731
4.128925556471053e-09	0.786656	0.30989918	0.51871276	0.8223367	0.12837128	0.55390596
4.147692496274321e-09	0.7865649	0.30999976	0.51882595	0.8220012	0.12533648	0.5550763
4.166434250777513e-09	0.7864975	0.31000096	0.5189583	0.82265466	0.12187826	0.5548662
4.185155939224506e-09	0.7864709	0.3099076	0.5190811	0.82401466	0.11915699	0.553438
4.203897490216085e-09	0.786492	0.3097454	0.5191698	0.8255951	0.11801231	0.55133647
4.222672309291912e-09	0.78655624	0.30955386	0.5192096	0.8268654	0.118725814	0.5492955
4.241432883583899e-09	0.78664905	0.30937704	0.51919764	0.8274226	0.12094068	0.5479912
4.2602158041363265e-09	0.78675085	0.3092518	0.5191435	0.8271272	0.12382599	0.54780596
4.278968535073922e-09	0.78684086	0.30920076	0.5190659	0.826134	0.12637067	0.54872537
4.297718831640245e-09	0.786903	0.30922732	0.5189874	0.8248227	0.12775904	0.5503661
4.316514186549131e-09	0.7869288	0.3093173	0.5189289	0.82365036	0.12761484	0.5521375