# t (s)	mx ()	my ()	mz ()	m.region1x ()	m.region1y ()	m.region1z ()
0	0	1	0	0	1	0
1.023e-12	-0.024332345	0.99957365	0.01572746	-0.04200107	0.9989429	0.01868037
2.047e-12	-0.048069343	0.9983195	0.03154701	-0.08312961	0.99581957	0.03784914
4.095e-12	-0.09360137	0.99348944	0.063356385	-0.16213405	0.9837355	0.07728794
8.191e-12	-0.17646512	0.97565377	0.12726636	-0.30438504	0.9392547	0.15841828
1.431579459848513e-11	-0.27906138	0.9331037	0.22210848	-0.47196603	0.8366823	0.27711716
2.0452532846028678e-11	-0.35641894	0.8776206	0.3144051	-0.58677	0.71234876	0.38327542
2.664688523794573e-11	-0.41046858	0.8141966	0.40324655	-0.6590001	0.5831637	0.47190914
3.303529029314473e-11	-0.4438628	0.7451809	0.48922938	-0.70142525	0.45636114	0.54290104
3.97247561470023e-11	-0.45824483	0.6719029	0.57237345	-0.7242295	0.3343133	0.5971194
4.673049266636591e-11	-0.45496652	0.595731	0.6514084	-0.73472023	0.21755676	0.63548887
5.395972451986009e-11	-0.43627542	0.5182698	0.7240577	-0.73759747	0.10623918	0.6592086
6.133160101852763e-11	-0.40536818	0.44010878	0.7886541	-0.7353408	-0.000307198	0.6699926
6.88851459888186e-11	-0.36515647	0.35997593	0.84476537	-0.7288609	-0.10375365	0.66927403
7.673217121581263e-11	-0.31786314	0.27552563	0.8920789	-0.71831346	-0.20563512	0.6574116
8.494743684338138e-11	-0.26578364	0.1846906	0.9293778	-0.7037433	-0.30622122	0.63384885
9.347277392802077e-11	-0.21210511	0.08708483	0.9545343	-0.6854016	-0.40406466	0.598074
1.0218238067345427e-10	-0.16015664	-0.016169388	0.9656513	-0.66337967	-0.49745694	0.5502855
1.1118774553407228e-10	-0.11107153	-0.12581532	0.961386	-0.63629407	-0.58750504	0.4897441
1.202287700396359e-10	-0.066707835	-0.23708159	0.9409114	-0.6028562	-0.67147875	0.41867742
1.2892872547797677e-10	-0.02738331	-0.34298086	0.9060742	-0.5624551	-0.7459316	0.34188303
1.3740870023890242e-10	0.010256479	-0.44257158	0.85826886	-0.5130115	-0.8117402	0.2604873
1.4591861966980393e-10	0.050814234	-0.5361353	0.797245	-0.45127964	-0.8698384	0.17362414
1.5436132189289564e-10	0.09789065	-0.61954546	0.7247365	-0.37615153	-0.91786546	0.08332866
1.6273775787488928e-10	0.15552585	-0.68940663	0.6422443	-0.2862576	-0.95356756	-0.009766167
1.708249343760622e-10	0.22500394	-0.7404728	0.55410033	-0.18356055	-0.97329134	-0.10290346
1.7877230641786362e-10	0.3087596	-0.7700332	0.46113345	-0.06648844	-0.97366995	-0.19780831
1.865823435403975e-10	0.40636998	-0.7735124	0.36583734	0.06408707	-0.9488466	-0.29462445
1.9435016071891073e-10	0.51631755	-0.7456836	0.26993284	0.20707572	-0.8899224	-0.394277
2.020953136546415e-10	0.6333385	-0.6809553	0.17660755	0.3564229	-0.7847228	-0.49560928
2.0959339236774717e-10	0.74522865	-0.5789771	0.092332184	0.494588	-0.62483996	-0.5917337
2.1695215214748999e-10	0.8429433	-0.44031316	0.019595124	0.6016583	-0.40080127	-0.67596513
2.2432549029757844e-10	0.91680837	-0.2664764	-0.03910821	0.6465234	-0.10820938	-0.7350481
2.3137583095818745e-10	0.9545253	-0.075532705	-0.07829848	0.59402966	0.21458454	-0.7462101
2.377372635539857e-10	0.9549629	0.10761978	-0.09710182	0.4475932	0.5001325	-0.6988166
2.4386351925514613e-10	0.923445	0.28353694	-0.09917644	0.227578	0.7205053	-0.5922691
2.5032960745594835e-10	0.85822695	0.45786622	-0.08408088	-0.046991933	0.8531509	-0.4219145
2.5760089511976136e-10	0.7531094	0.6279217	-0.04699834	-0.3379097	0.8679848	-0.18967299
2.646633482374567e-10	0.6303419	0.7579977	0.0068974225	-0.5495989	0.7787304	0.037497457
2.7153539817750135e-10	0.5038215	0.8477962	0.07289792	-0.6750547	0.6422367	0.2310825
2.787153652143568e-10	0.3763072	0.9039733	0.15213406	-0.73676443	0.48876795	0.3909091
2.8592727021137836e-10	0.26278707	0.92634344	0.23816523	-0.7534004	0.34651864	0.50790083
2.9326922696031385e-10	0.16875444	0.92077994	0.3284586	-0.7469902	0.2210998	0.58978426
3.0078222678198445e-10	0.09816896	0.89275426	0.42021894	-0.731361	0.110796474	0.644486
3.079112899711732e-10	0.05533289	0.8510628	0.50414723	-0.71472806	0.018272307	0.67687345
3.148475221264348e-10	0.034659922	0.80037147	0.5810844	-0.6988357	-0.06411197	0.69509816
3.218288298695725e-10	0.03228196	0.7418402	0.652507	-0.6833897	-0.14163233	0.7031649
3.2897430313954347e-10	0.045900874	0.67569757	0.71830547	-0.6681133	-0.21656924	0.70240897
3.36305109599685e-10	0.073237374	0.6021154	0.777228	-0.65311015	-0.28960404	0.69297737
3.4378904569905023e-10	0.111372754	0.5213858	0.8276092	-0.63864994	-0.36093584	0.6746084
3.5139915208068374e-10	0.1569954	0.43372008	0.86798924	-0.62469506	-0.43102312	0.64692384
3.592297584965174e-10	0.20749322	0.3381031	0.8974626	-0.6103805	-0.5014122	0.6089582
3.673131071209103e-10	0.26004276	0.23466009	0.9144918	-0.5941567	-0.57272285	0.55981296
3.753622252645053e-10	0.3102134	0.12861349	0.91759485	-0.57450676	-0.6422312	0.50122774
3.8355956737228197e-10	0.35753232	0.020047281	0.9065105	-0.54858726	-0.7106882	0.4324206
3.920063372971177e-10	0.40198165	-0.089033805	0.88041294	-0.5132143	-0.7774086	0.35298312
4.005503096074822e-10	0.44355026	-0.19248635	0.8397049	-0.466136	-0.8391991	0.26515016
4.0916020010001035e-10	0.4842695	-0.28540632	0.7854863	-0.4049799	-0.89358187	0.17034443
4.179045636805298e-10	0.52750236	-0.36364174	0.71876943	-0.32662237	-0.9380538	0.0686855
4.2637239012952634e-10	0.5740955	-0.41968176	0.6452346	-0.23322682	-0.9673166	-0.034227986
4.3476606315251034e-10	0.6268971	-0.452102	0.56624705	-0.122154444	-0.9780466	-0.14022331
4.431941792442655e-10	0.687021	-0.45770815	0.48375362	0.008437921	-0.96336573	-0.25040194
4.5147090824985334e-10	0.75139797	-0.43369478	0.40283245	0.15372507	-0.9141219	-0.3617189
4.596371882838007e-10	0.8162673	-0.37915084	0.32647613	0.3080156	-0.81850654	-0.47297633
4.67688014987869e-10	0.875779	-0.29494914	0.25806886	0.45798352	-0.6628787	-0.58001286
4.756547289183762e-10	0.92338204	-0.1838824	0.20050344	0.5800902	-0.43431187	-0.6745451
4.835377115170614e-10	0.9524835	-0.051663965	0.15655798	0.6367083	-0.13106422	-0.74027044
4.907388925947235e-10	0.95859444	0.08201577	0.12989357	0.5923997	0.19364007	-0.7537407
4.971985777133574e-10	0.9453532	0.20606652	0.118059225	0.45317492	0.4827024	-0.7080877
5.034033616502039e-10	0.9159194	0.32317662	0.11786513	0.23847938	0.7089448	-0.60264033
5.098820012788295e-10	0.86940074	0.43772763	0.1292024	-0.031043062	0.84860545	-0.43363094
5.176304195989375e-10	0.7972324	0.55760956	0.15722987	-0.3374404	0.8699302	-0.18485053
5.247651115079771e-10	0.72107005	0.6467233	0.19523838	-0.547498	0.7809027	0.04745255
5.316572891288526e-10	0.6449517	0.7112042	0.2409608	-0.669905	0.64410585	0.2447892
5.388261581930288e-10	0.56910944	0.75560176	0.29549867	-0.72793657	0.4896194	0.40787956
5.460170145026404e-10	0.50146675	0.778381	0.3548264	-0.7405863	0.34531513	0.52771515
5.532455040793753e-10	0.44559366	0.7818209	0.41666406	-0.7301882	0.21855383	0.6108485
5.605800141004852e-10	0.40339494	0.7683344	0.47936526	-0.7110772	0.107045986	0.6659688
5.67735041763535e-10	0.37687457	0.74146616	0.53855705	-0.69121903	0.0103063015	0.6989806
5.746061367206901e-10	0.36452174	0.7051097	0.5920651	-0.67312	-0.0751591	0.71641946
5.814459462337635e-10	0.36381403	0.6603452	0.6408913	-0.65617913	-0.15521215	0.7229395
5.88398235022095e-10	0.37330005	0.6074496	0.68497723	-0.6397727	-0.23253554	0.7202328
5.955155704123683e-10	0.39166695	0.5467694	0.7234441	-0.62367547	-0.30803207	0.7086477
6.027806247565332e-10	0.41722393	0.47916144	0.7550017	-0.60794777	-0.3817669	0.68805295
6.101157821845115e-10	0.44776654	0.40630418	0.77836126	-0.5926021	-0.45340076	0.658423
6.176392619812103e-10	0.48190922	0.3282225	0.7930052	-0.5767631	-0.5245599	0.6188708
6.254270751547571e-10	0.518361	0.24566075	0.7979858	-0.55893856	-0.5961482	0.5682925
6.332520834645484e-10	0.55471957	0.16315699	0.7925833	-0.5376628	-0.665853	0.50795794
6.411469820038655e-10	0.590345	0.082951635	0.7768885	-0.51053613	-0.7332151	0.43810394
6.492770595121602e-10	0.62576836	0.0064717177	0.75066173	-0.474257	-0.798186	0.35781208
6.575143259999943e-10	0.6607694	-0.061559044	0.71475804	-0.42652813	-0.8577202	0.26918915
6.657420098948862e-10	0.69559443	-0.11692736	0.6709697	-0.36573467	-0.9087806	0.17481641
6.741462349876239e-10	0.73180795	-0.157552	0.6199057	-0.28821874	-0.9496681	0.07372101
6.824566308199983e-10	0.76863235	-0.17936487	0.56523454	-0.19469757	-0.97554237	-0.029925779
6.905727716013939e-10	0.80522406	-0.1811847	0.510076	-0.08615763	-0.98235416	-0.13411558
6.986678293894576e-10	0.8411125	-0.16274165	0.4556571	0.039112326	-0.9646861	-0.24065363
7.067419761985212e-10	0.8741951	-0.12408349	0.404346	0.1791898	-0.91387385	-0.3491261
7.146133279811389e-10	0.9011563	-0.06794979	0.3594122	0.3250643	-0.8209546	-0.45583987
7.224149740815762e-10	0.91985035	0.003400108	0.3218484	0.46742836	-0.6729323	-0.5594101
7.301471468502578e-10	0.9279082	0.0861154	0.2931571	0.58542347	-0.45819202	-0.6527265
7.377858405528508e-10	0.9238273	0.17519554	0.27441454	0.6463366	-0.17452002	-0.7218321
7.451147728358157e-10	0.9080234	0.2629265	0.26610747	0.61400205	0.1490301	-0.7453442
7.5166044353166e-10	0.884498	0.33939973	0.26686502	0.4862471	0.44297194	-0.71025735
7.578820894811283e-10	0.8549923	0.4075532	0.27455908	0.28185424	0.67855865	-0.61564064
7.643106591054784e-10	0.81883746	0.4709115	0.2891934	0.020002382	0.8331225	-0.4576621
7.718057434029929e-10	0.77216446	0.53323996	0.3138885	-0.28101665	0.8771457	-0.22293027
7.790584501526466e-10	0.7255724	0.5800296	0.34430832	-0.5076506	0.80429536	0.01511962
7.85920498876106e-10	0.6830517	0.6113836	0.3776224	-0.64278454	0.6759791	0.21816237
7.93136003444086e-10	0.64252746	0.63092315	0.4159005	-0.7122145	0.52169734	0.39088115
8.002922488602536e-10	0.6085448	0.6374136	0.45563975	-0.7315728	0.3752294	0.51790524
8.075595307760451e-10	0.58170104	0.6319922	0.49630705	-0.72454935	0.24346365	0.6075954
8.149310622060696e-10	0.5630161	0.6154926	0.5364515	-0.70660275	0.12715511	0.6671631
8.222286478551522e-10	0.55299395	0.5896631	0.5738266	-0.6865942	0.024912035	0.7032509
8.291698001174095e-10	0.5508127	0.5575932	0.6061891	-0.668214	-0.064441	0.7220219
8.360325727750898e-10	0.55494124	0.51983535	0.6343377	-0.65094477	-0.14769904	0.7290273
8.42990622682711e-10	0.56455034	0.47652113	0.65831995	-0.6340187	-0.22817056	0.72632045
8.501198661208488e-10	0.5789568	0.42805427	0.6775961	-0.61705244	-0.30704454	0.71433336
8.574022909508566e-10	0.5972674	0.3755555	0.691341	-0.60006535	-0.3842329	0.6929415
8.647165216344859e-10	0.6181994	0.32117438	0.6988449	-0.5832245	-0.45874962	0.6623263
8.721588382544953e-10	0.64112365	0.26567194	0.6999208	-0.56577563	-0.53195167	0.62184745
8.798506658527668e-10	0.6657132	0.20986196	0.6942022	-0.5462206	-0.6051394	0.57023996
8.876448634396614e-10	0.69095516	0.1568022	0.6816766	-0.5229867	-0.67660636	0.5081375
8.95444421006997e-10	0.71617144	0.10914104	0.6629435	-0.49404684	-0.7446889	0.4367567
9.034309725456176e-10	0.7417441	0.06788938	0.6381717	-0.45607772	-0.8095382	0.35512796
9.116463769325067e-10	0.76764834	0.035291664	0.6079073	-0.4057773	-0.86925745	0.2635478
9.197376596479023e-10	0.79256356	0.0145018175	0.57466954	-0.34296045	-0.9189307	0.16728829
9.279067382435909e-10	0.81671953	0.006072853	0.539137	-0.2643828	-0.95716876	0.06533701
9.361760510118623e-10	0.83944815	0.0110484	0.5027636	-0.16791685	-0.9800911	-0.041733842
9.44167754974239e-10	0.85879856	0.028776763	0.46879843	-0.057742074	-0.9824068	-0.14833312
9.520369389929072e-10	0.8741989	0.057990227	0.43795493	0.066717066	-0.9592032	-0.25596717
9.598909893221999e-10	0.88475883	0.09747419	0.41106504	0.20442313	-0.90202045	-0.36552677
9.676920992436844e-10	0.8894121	0.14499255	0.38933647	0.3484303	-0.80004054	-0.47499967
9.75351910447754e-10	0.8875639	0.19734602	0.37369272	0.4843742	-0.64285266	-0.5794325
9.829630055611235e-10	0.87912154	0.25232184	0.36430427	0.59182996	-0.41892537	-0.6721449
9.905306519343735e-10	0.86441475	0.30718192	0.3613172	0.6372554	-0.1272631	-0.7381862
9.97718212676213e-10	0.8452954	0.35706788	0.36430615	0.5866679	0.1939199	-0.755002
1.004185781734944e-09	0.82466817	0.39838946	0.37161738	0.44359717	0.47936568	-0.711948
1.0103930836441226e-09	0.80274844	0.43366235	0.3824122	0.22806251	0.7018321	-0.6084805
1.0168841226475002e-09	0.7786597	0.46500626	0.3971915	-0.04005631	0.8392375	-0.4406942
1.0244947440933757e-09	0.75039494	0.49365658	0.4182859	-0.33804536	0.8615597	-0.19737612
1.0316576274327394e-09	0.7252301	0.5121567	0.44095102	-0.5481125	0.7756758	0.036564786
1.0386037675204948e-09	0.70334506	0.5221812	0.46463382	-0.6717615	0.63995486	0.23739338
1.0458717041201611e-09	0.6840529	0.52457273	0.4902693	-0.73097116	0.48355177	0.40488717
1.0530997854067108e-09	0.6691755	0.5192373	0.5157069	-0.7437524	0.33692202	0.52697426
1.060392274968701e-09	0.65885997	0.506752	0.54042566	-0.7328232	0.20612375	0.6118252
1.0678037539984632e-09	0.65324295	0.48760128	0.5637433	-0.71237916	0.08967078	0.66770345
1.0750496993002176e-09	0.65227133	0.46349013	0.58407384	-0.6905082	-0.012466773	0.7004914
1.0819618606829206e-09	0.65513206	0.43639955	0.6006572	-0.6700457	-0.1027571	0.71668625
1.0888064824740622e-09	0.66114765	0.4064942	0.6139709	-0.65030193	-0.18741484	0.7211868
1.0957535968193176e-09	0.66997373	0.37389663	0.624021	-0.6304943	-0.26948243	0.7157056
1.1028700651941603e-09	0.6812971	0.33912614	0.63049376	-0.6102813	-0.34991995	0.70050716
1.1101166483416905e-09	0.69463426	0.30333388	0.6330131	-0.5897473	-0.42832503	0.67551154
1.1173145757884054e-09	0.7091686	0.2684663	0.631475	-0.5692219	-0.5030418	0.6413676
1.1246390629309947e-09	0.72481227	0.23478362	0.6259301	-0.5475848	-0.5761798	0.59720725
1.1322060409254632e-09	0.74146044	0.20303404	0.6162839	-0.5231766	-0.648806	0.54179317
1.139865176955524e-09	0.7584435	0.17518383	0.60291314	-0.49447015	-0.71894914	0.4759688
1.147518987432088e-09	0.7752131	0.15269127	0.58650523	-0.45953044	-0.784753	0.4011215
1.1553437826881787e-09	0.79181004	0.13611078	0.5672976	-0.41496888	-0.8461053	0.3163197
1.1633557456755398e-09	0.80784357	0.12656234	0.5459342	-0.35775372	-0.9006831	0.22222932
1.171222943285926e-09	0.8222033	0.12490939	0.5241954	-0.28820476	-0.9437297	0.124150015
1.1791300611547796e-09	0.83475196	0.13102934	0.50252277	-0.20341921	-0.97349244	0.021178653
1.1871860294242395e-09	0.8450303	0.14497766	0.4815782	-0.1006415	-0.9858883	-0.08727779
1.195036010255863e-09	0.85206366	0.1653814	0.46314374	0.015653988	-0.97519606	-0.19577515
1.2027388680019103e-09	0.8556416	0.19095546	0.44768766	0.1440778	-0.9356864	-0.30441555
1.2104022840308655e-09	0.8556115	0.22062367	0.43549088	0.28214648	-0.85836536	-0.4136668
1.2180758106695094e-09	0.85185534	0.25312233	0.42689526	0.42216596	-0.7309849	-0.5217908
1.2256202867676784e-09	0.84460986	0.28629538	0.42223588	0.54545504	-0.5444944	-0.62137216
1.2331011655307999e-09	0.8342532	0.31890514	0.42141604	0.62707067	-0.2915623	-0.7026761
1.240582528888334e-09	0.8212486	0.34984294	0.42430365	0.63144875	0.022264758	-0.7479046
1.247400128187878e-09	0.8076682	0.37552363	0.42997187	0.5378551	0.33143386	-0.73597485
1.2537031857092749e-09	0.79418904	0.3964166	0.43754587	0.3614272	0.5915063	-0.6638146
1.2599798610656636e-09	0.78041106	0.4139886	0.44703186	0.122083284	0.7792988	-0.5301012
1.266939993835551e-09	0.76534265	0.4292676	0.45942304	-0.16362447	0.8713562	-0.32566413
1.2744911159733936e-09	0.7499856	0.44051707	0.4745355	-0.42888308	0.83942366	-0.07567954
1.2814156847624656e-09	0.73741627	0.44585854	0.4893649	-0.5955047	0.72884256	0.14263445
1.2885148158786953e-09	0.7265138	0.4464763	0.50497013	-0.6892703	0.58027226	0.3316749
1.2957143321032193e-09	0.71785146	0.4423222	0.52065486	-0.72466326	0.426373	0.47897705
1.3030039885998886e-09	0.71174145	0.43359885	0.53584397	-0.72422457	0.2840111	0.5853449
1.3102918594297589e-09	0.708368	0.4208381	0.54982835	-0.70690536	0.15893072	0.6567419
1.3176604675824908e-09	0.7076628	0.40443462	0.56229454	-0.6839374	0.04701368	0.70218134
1.3247246956750878e-09	0.7093695	0.3860317	0.5723135	-0.661477	-0.050842654	0.7270179
1.3315598537750286e-09	0.7130173	0.36634585	0.57995456	-0.64038044	-0.13980086	0.73762536
1.3383903751303499e-09	0.718368	0.34544224	0.58540076	-0.61972123	-0.22468214	0.7373433
1.345351223483657e-09	0.72529083	0.32351935	0.58859426	-0.59876496	-0.30769044	0.72714204
1.3524859690894152e-09	0.73361886	0.301089	0.5893649	-0.5772391	-0.38931298	0.7069735
1.3596199209019926e-09	0.74288356	0.27940062	0.5876465	-0.5555981	-0.4675629	0.67729616
1.3667546381591017e-09	0.7527897	0.25912774	0.5835607	-0.5335471	-0.5426547	0.63825786
1.3740523472349347e-09	0.76329255	0.24051934	0.5771365	-0.50979775	-0.6163369	0.5887756
1.3816025866644269e-09	0.7742548	0.22417553	0.56839734	-0.48253265	-0.6891198	0.5276532
1.3891820219098027e-09	0.7850602	0.21131434	0.55786407	-0.45042968	-0.75804496	0.45662144
1.3968040146471959e-09	0.7954275	0.20241876	0.5459413	-0.41107598	-0.82199764	0.37623873
1.4046250217605029e-09	0.8052347	0.197817	0.53283864	-0.36091682	-0.88027257	0.28563714
1.4125109867577551e-09	0.8139498	0.1979565	0.5193019	-0.2980599	-0.9292161	0.18745005
1.4202947085609648e-09	0.8210856	0.20273288	0.5061849	-0.22209118	-0.96514225	0.085312486
1.4281487505123872e-09	0.82651854	0.21194422	0.4937453	-0.13007872	-0.9855147	-0.021684473
1.4361542637165895e-09	0.82997274	0.22537147	0.48241404	-0.019754471	-0.985173	-0.13376693
1.4439480513018391e-09	0.83113575	0.24169016	0.47313327	0.10319368	-0.9580713	-0.24503541
1.4516333015051413e-09	0.8300766	0.26013386	0.4660154	0.23694856	-0.8971159	-0.35593835
1.4593005423371683e-09	0.82686436	0.2800021	0.461166	0.37664962	-0.79163	-0.46595368
1.466960611314243e-09	0.821646	0.30041814	0.45870247	0.5099285	-0.62905353	-0.57112175
1.4745253014702302e-09	0.81476605	0.32026404	0.4586358	0.6133023	-0.4015058	-0.6618081
1.482037938425433e-09	0.8065662	0.33885863	0.46082923	0.65499383	-0.10864774	-0.7234594
1.4891879831953044e-09	0.79785913	0.35487005	0.46486732	0.6029645	0.21173878	-0.7344597
1.4956580415718697e-09	0.7895437	0.36749354	0.46999303	0.46086064	0.49646387	-0.6853382
1.501894237237312e-09	0.78142333	0.37767607	0.4760763	0.24792881	0.7186125	-0.5758517
1.5085002997865611e-09	0.7730073	0.386099	0.48352295	-0.019171199	0.85690385	-0.4004356
1.5159280225492327e-09	0.7641373	0.39247233	0.4928108	-0.30366647	0.87961704	-0.16051014
1.523067283290221e-09	0.75653684	0.39542755	0.5023012	-0.51027143	0.7968529	0.07356545
1.5300103392195545e-09	0.7502727	0.39535278	0.51172185	-0.633286	0.6623597	0.27511755
1.5373109098757683e-09	0.74508345	0.39227575	0.521482	-0.69252664	0.5042424	0.44416228
1.5445125767293607e-09	0.7414921	0.38645744	0.5306327	-0.70452785	0.3555943	0.5664211
1.5517366228811233e-09	0.73946565	0.37815204	0.5390314	-0.6924105	0.22263427	0.65102166
1.559018303823464e-09	0.73900336	0.36765462	0.54643726	-0.67062825	0.104420505	0.7064256
1.5662469252461757e-09	0.74003744	0.35554773	0.5525148	-0.6469993	-0.0013700196	0.73935777
1.5731290183374699e-09	0.7422912	0.34287995	0.55696493	-0.6249953	-0.09512629	0.7552536
1.579909490693469e-09	0.74558645	0.32972053	0.5599746	-0.60394746	-0.18310471	0.75906587
1.5867638375071406e-09	0.7498467	0.31614733	0.56157607	-0.58292013	-0.26861122	0.7525718
1.593781806200286e-09	0.75500065	0.3024004	0.5617057	-0.5613564	-0.35286996	0.73600703
1.6009055086730043e-09	0.7608597	0.28904247	0.5603144	-0.5393102	-0.43502334	0.70937157
1.6079616707507147e-09	0.76709163	0.2768197	0.55751115	-0.51714176	-0.51308495	0.67345124
1.6151065596601671e-09	0.77363956	0.26585272	0.55336154	-0.4938459	-0.58882695	0.6275511
1.6224720314202534e-09	0.7804345	0.25639045	0.5478885	-0.46786833	-0.66334397	0.57038695
1.6300473691540422e-09	0.787254	0.2489276	0.54123515	-0.43736017	-0.73574466	0.50153637
1.637594228401143e-09	0.7936634	0.24401909	0.5338539	-0.4009925	-0.80261254	0.42346668
1.6452736052742127e-09	0.79958004	0.24175793	0.5258853	-0.3554813	-0.8637106	0.33535823
1.6531885152703032e-09	0.8048295	0.24234892	0.5175369	-0.29716346	-0.9171915	0.23684652
1.660981652919055e-09	0.80896914	0.24574143	0.50952846	-0.22632766	-0.9578104	0.1338332
1.66877424362748e-09	0.81193256	0.25171468	0.50205857	-0.14059587	-0.983291	0.026419664
1.676702557704572e-09	0.813625	0.2601126	0.49531573	-0.037138615	-0.9894767	-0.08602648
1.6846313633597585e-09	0.8139192	0.27041903	0.48970142	0.08259897	-0.9699726	-0.20056744
1.6924131292921909e-09	0.81284654	0.2818942	0.48549122	0.21406774	-0.9180836	-0.31397298
1.7001519187269343e-09	0.810503	0.2941122	0.4827182	0.35349217	-0.8241158	-0.4260887
1.7079090457022835e-09	0.80699795	0.3066215	0.4814252	0.4912119	-0.67505527	-0.5342993
1.7156007563155434e-09	0.80255365	0.31875733	0.48161954	0.60598344	-0.4608991	-0.6300685
1.7232345251617378e-09	0.7974013	0.3300532	0.48321334	0.66707516	-0.17841534	-0.6998043
1.7305976728597629e-09	0.7919556	0.3398381	0.4859741	0.6389449	0.14521192	-0.72226506
1.7371919012500085e-09	0.7868721	0.3473985	0.4893542	0.5179363	0.44131073	-0.6849346
1.7434513340864285e-09	0.78202736	0.353337	0.49324113	0.32196003	0.6809447	-0.5877768
1.7499401414382027e-09	0.7771441	0.35808042	0.49783573	0.067597605	0.8429315	-0.42668203
1.7574031349201307e-09	0.77190197	0.3616404	0.5036381	-0.22467172	0.8967707	-0.19160043
1.7647627558608353e-09	0.7673199	0.36311334	0.50967574	-0.452962	0.8314113	0.05184145
1.7716503902029763e-09	0.76370615	0.36267987	0.5154002	-0.58993393	0.7060763	0.25826207
1.7788408370666522e-09	0.760739	0.3604433	0.52124465	-0.6611381	0.55109453	0.43380222
1.7860222278788593e-09	0.7586688	0.35653245	0.52675104	-0.6810971	0.3991224	0.5645997
1.7932285903413147e-09	0.75752324	0.3511169	0.531763	-0.67263013	0.26137683	0.65623844
1.8004399255128603e-09	0.75730985	0.34443873	0.5361056	-0.6520211	0.13953401	0.716585
1.8076824967838786e-09	0.757999	0.3367362	0.5396585	-0.6281646	0.02965221	0.7535558
1.8145996239665466e-09	0.7594423	0.3287213	0.5422038	-0.60569143	-0.06758479	0.7722044
1.8213624959564884e-09	0.76151854	0.32052702	0.54383534	-0.58450085	-0.15799353	0.7779291
1.8281564724685543e-09	0.7641769	0.31219897	0.5445948	-0.5636149	-0.24543561	0.7730157
1.8350978887044334e-09	0.76738095	0.30385646	0.544462	-0.5422947	-0.3316491	0.75791836
1.8422058110617382e-09	0.77105284	0.29575872	0.5434061	-0.52027065	-0.41663003	0.7324093
1.8492245503730894e-09	0.77494174	0.2884557	0.54151076	-0.49815562	-0.49718085	0.69750136
1.8562893980776945e-09	0.77899164	0.28202635	0.53883535	-0.47510552	-0.57482785	0.6527812
1.8635457731903924e-09	0.78315884	0.27658638	0.53540224	-0.44970274	-0.65085095	0.59703207
1.8710634160641132e-09	0.7873414	0.27236664	0.53126353	-0.42000386	-0.7251784	0.52912414
1.878578944924904e-09	0.7912448	0.2697115	0.5267072	-0.38483587	-0.794056	0.4515123
1.8861903301410567e-09	0.7947803	0.26867944	0.5218566	-0.34130153	-0.85681325	0.3639675
1.8940283593806953e-09	0.7978544	0.26935616	0.5168209	-0.2856886	-0.91201085	0.26579753
1.901841132109695e-09	0.8002378	0.27171114	0.5119686	-0.21714437	-0.9549227	0.16150714
1.909625771175629e-09	0.8018544	0.27558094	0.507495	-0.1340899	-0.9825185	0.05289836
1.917528492043557e-09	0.8026688	0.28085223	0.5035012	-0.033628464	-0.99099094	-0.060580913
1.9255513621667294e-09	0.8026265	0.28731152	0.5001667	0.08505166	-0.9738105	-0.1777397
1.933417788626356e-09	0.80175626	0.29441816	0.49771944	0.2160352	-0.9241316	-0.29326782
1.9412323958036125e-09	0.8001375	0.30190995	0.49617088	0.3556986	-0.8325402	-0.40693954
1.949065568096274e-09	0.7978512	0.30952203	0.49553716	0.49490127	-0.6860433	-0.5163292
1.9568607727524374e-09	0.79503345	0.31688178	0.49581605	0.61324173	-0.4734192	-0.61341286
1.9646018307840867e-09	0.79183316	0.32368723	0.49695122	0.6794842	-0.19079006	-0.6843767
1.9720212382559543e-09	0.7885221	0.3294999	0.49877617	0.65744084	0.13333382	-0.70784664
1.9786470766137263e-09	0.78547114	0.33393958	0.5009446	0.5427517	0.43163744	-0.6718883
1.9849255138396745e-09	0.7825881	0.33738098	0.50339735	0.35242876	0.6756728	-0.5764987
1.9914169168958886e-09	0.77970433	0.34007198	0.50625914	0.10234287	0.8441761	-0.41755983
1.9989260427633552e-09	0.7766058	0.34201452	0.50986254	-0.19067897	0.9065959	-0.18263257
2.006328311484812e-09	0.773914	0.34267208	0.51358074	-0.42247018	0.8468041	0.062087465
2.0132004787781423e-09	0.7718204	0.34218222	0.51705134	-0.5623842	0.72454286	0.26895788
2.0203469221392167e-09	0.77011955	0.34060502	0.52055514	-0.63651496	0.5709357	0.44510174
2.02753104039517e-09	0.76894027	0.338013	0.5238518	-0.6587944	0.41757664	0.5777392
2.034730596796624e-09	0.76831394	0.334526	0.5268211	-0.65141433	0.27788162	0.67069197
2.0419042505173753e-09	0.768244	0.33031443	0.5293546	-0.63121015	0.15448457	0.73171157
2.0491025948911947e-09	0.76871204	0.3255183	0.53139514	-0.60746086	0.04320088	0.76911855
2.0560202053181983e-09	0.7696364	0.32054245	0.5328308	-0.58492154	-0.05589041	0.7881015
2.0627698036132716e-09	0.7709423	0.31550583	0.53370506	-0.5638082	-0.1478873	0.79388255
2.0695352470492615e-09	0.7725984	0.31043854	0.5340473	-0.54313844	-0.23679955	0.78886217
2.076438592745222e-09	0.77458274	0.30541053	0.53385055	-0.52209806	-0.32451612	0.7735496
2.0835144325455256e-09	0.7768513	0.3005692	0.53310007	-0.5003026	-0.4111971	0.7476878
2.0905069914837607e-09	0.7792472	0.29624486	0.53185356	-0.47831985	-0.49346837	0.7122957
2.097534880172584e-09	0.78172815	0.29249072	0.5301516	-0.45536304	-0.57260114	0.6670661
2.1047423417600588e-09	0.7842632	0.28937057	0.528012	-0.43006015	-0.6498278	0.6108384
2.112194425980877e-09	0.78678465	0.28701466	0.52547216	-0.40056467	-0.7249958	0.54257566
2.1196930882050955e-09	0.7891311	0.28559923	0.5226863	-0.36548388	-0.79489106	0.46410075
2.1272796316086793e-09	0.79122764	0.28516814	0.5197484	-0.32217386	-0.85827416	0.3756782
2.1350909549631625e-09	0.7930188	0.2857614	0.51672256	-0.26690972	-0.91376066	0.27653655
2.1429131477084613e-09	0.7943769	0.28735164	0.5138157	-0.19845659	-0.95676994	0.17072272
2.1507096815938188e-09	0.79525363	0.28983045	0.511157	-0.11538786	-0.9839465	0.06053586
2.1586243768248554e-09	0.79563427	0.29312313	0.50880593	-0.014810555	-0.9913886	-0.054435845
2.1666996735940985e-09	0.7954944	0.2971157	0.5068588	0.10468298	-0.97231215	-0.17342238
2.174625698493771e-09	0.7948626	0.30146495	0.5054581	0.23666854	-0.919621	-0.29039916
2.1825049358478908e-09	0.79379475	0.30601332	0.50460863	0.37717292	-0.8236275	-0.4049038
2.1904128842929624e-09	0.79234517	0.3106063	0.5043169	0.5165011	-0.670913	-0.51425165
2.198287294259817e-09	0.7906012	0.3150196	0.50457805	0.6330053	-0.45031202	-0.6097687
2.2061106936831118e-09	0.7886524	0.31907523	0.5053547	0.6938834	-0.15894376	-0.6767095
2.2134439938574546e-09	0.7867032	0.32244307	0.5065102	0.664317	0.16397619	-0.6932941
2.220025617091908e-09	0.78491056	0.32501453	0.50785744	0.5442259	0.4585041	-0.6508539
2.2263088656197247e-09	0.7832096	0.32700515	0.50937515	0.3503478	0.6976063	-0.5492837
2.2328858295139606e-09	0.78149205	0.3285508	0.51115584	0.097059526	0.860298	-0.38322175
2.2404004830314324e-09	0.77967566	0.3296008	0.5133564	-0.19135042	0.91347426	-0.1457209
2.247667825541776e-09	0.77813154	0.32987556	0.5155684	-0.41270748	0.8497054	0.09340959
2.2545344920870966e-09	0.7769121	0.32947922	0.51765746	-0.54789597	0.7258034	0.29756895
2.2616879165591335e-09	0.77592427	0.3284251	0.51975805	-0.6187148	0.57152706	0.47071466
2.2688712477039876e-09	0.77524674	0.32676572	0.52172	-0.63899875	0.4181397	0.60028076
2.276056793833551e-09	0.77489734	0.32458007	0.5234714	-0.6306997	0.27861115	0.69047517
2.2832049990422527e-09	0.77487755	0.32197574	0.5249509	-0.6102688	0.15524621	0.749254
2.2903712088837057e-09	0.7751769	0.31903827	0.52612805	-0.5866359	0.0437225	0.7848913
2.2972611867081724e-09	0.77574766	0.31601053	0.52694154	-0.56432563	-0.05593155	0.80249304
2.3039956975992065e-09	0.776548	0.3129592	0.5274189	-0.54345244	-0.14882983	0.8070583
2.310750682489429e-09	0.77756	0.30990547	0.52757657	-0.52303106	-0.23883252	0.8008073
2.3176454065874637e-09	0.7787703	0.30689374	0.52741086	-0.50222594	-0.32776478	0.78415805
2.324689390965757e-09	0.7801464	0.30402368	0.52691674	-0.48068634	-0.41542855	0.7569229
2.3316603392736573e-09	0.78159857	0.30147704	0.52613086	-0.45882627	-0.49875292	0.7200715
2.338677689796529e-09	0.7831001	0.29928455	0.5250771	-0.43581533	-0.5789425	0.67323905
2.3458768052531354e-09	0.784629	0.29748648	0.5237677	-0.41026828	-0.6570461	0.6152883
2.3532970366552792e-09	0.78613687	0.296162	0.5222321	-0.38041058	-0.7325542	0.54544944
2.3607886180775145e-09	0.787535	0.2954008	0.5205545	-0.3446559	-0.80263025	0.46517912
2.368379322939615e-09	0.788774	0.29522902	0.51879364	-0.3003764	-0.8657854	0.3748528
2.3762033507828842e-09	0.78981894	0.29566807	0.51698905	-0.2437986	-0.9204691	0.27371916
2.3840299060399484e-09	0.7905935	0.29669207	0.5152677	-0.1738444	-0.96189135	0.16615494
2.391849592715839e-09	0.79107475	0.2982353	0.51369977	-0.088858485	-0.98669606	0.054153636
2.399801848511612e-09	0.7912552	0.30025202	0.5123216	0.014047556	-0.99059916	-0.0625894
2.4079046223101424e-09	0.7911252	0.302665	0.51119334	0.1357817	-0.9664211	-0.18280971
2.4158720676536254e-09	0.7907089	0.30527517	0.5103929	0.26979223	-0.9067728	-0.3006171
2.423808297336326e-09	0.7900426	0.30799216	0.5099223	0.4114237	-0.80126363	-0.41526532
2.4317887238243976e-09	0.78916085	0.3107266	0.5097855	0.5495108	-0.6357756	-0.52340645
2.4397218276402456e-09	0.7881201	0.313339	0.5099777	0.6595755	-0.40036228	-0.6148276
2.4476177327041455e-09	0.7869677	0.3157361	0.5104762	0.70657605	-0.0941901	-0.67334986
2.45478157136176e-09	0.7858585	0.31766063	0.51117074	0.65975314	0.22578399	-0.6772957
2.4612728209169205e-09	0.7848296	0.31914532	0.51197636	0.5260448	0.5114513	-0.6226347
2.4675806618637797e-09	0.78383446	0.32031143	0.5128955	0.32147896	0.7387325	-0.5085571
2.4743474740614663e-09	0.7828034	0.3212247	0.51399946	0.058773786	0.8855331	-0.32734644
2.4818414483596796e-09	0.7817474	0.321802	0.51531804	-0.21978979	0.915477	-0.08596339
2.488901368391932e-09	0.7808715	0.32192156	0.5166033	-0.42152825	0.84011036	0.14371459
2.4958013315807028e-09	0.7801541	0.3216503	0.517854	-0.5454814	0.7099641	0.3427689
2.503011224080583e-09	0.77957124	0.32098058	0.5191107	-0.6072146	0.553245	0.50933075