# t (s)	mx ()	my ()	mz ()	m.region1x ()	m.region1y ()	m.region1z ()
0	0	1	0	0	1	0
1.023e-12	-0.024334129	0.99957347	0.015727643	-0.05172819	0.99846524	0.019785242
2.047e-12	-0.048072882	0.99831915	0.03154737	-0.10239936	0.9939273	0.040277723
4.095e-12	-0.093608275	0.9934882	0.063357085	-0.19947457	0.9763942	0.08279655
8.191e-12	-0.17647782	0.97564894	0.12726735	-0.37159595	0.9125721	0.17029624
1.3789379301743033e-11	-0.2712723	0.9373437	0.214038	-0.55113095	0.78406566	0.28402758
1.9398757596498195e-11	-0.34490737	0.88778365	0.29882133	-0.66943866	0.63631964	0.38013735
2.5104688551839737e-11	-0.39915153	0.8304163	0.38159108	-0.741131	0.4887364	0.4548565
3.1052370352128806e-11	-0.4357487	0.7667769	0.46319014	-0.7816939	0.34910783	0.5089405
3.7327488567629346e-11	-0.4552933	0.69812685	0.54340273	-0.80290633	0.22024877	0.5437828
4.392120245229278e-11	-0.458295	0.6261178	0.6206986	-0.81305724	0.102608584	0.5611777
5.0716668848121436e-11	-0.4463502	0.5528487	0.6925655	-0.81708336	-0.004270507	0.563683
5.7622657730912667e-11	-0.4222095	0.479342	0.75732094	-0.81711644	-0.10207883	0.554441
6.466864285575471e-11	-0.38849983	0.40474433	0.8146647	-0.813567	-0.19320919	0.53597564
7.19562626774823e-11	-0.34717727	0.32710272	0.86457604	-0.80621594	-0.2794717	0.50961953
7.957259471554745e-11	-0.30004272	0.24441911	0.90635014	-0.794899	-0.36144647	0.47584066
8.751165737866776e-11	-0.24952675	0.15568572	0.9383527	-0.77985114	-0.43846783	0.4349226
9.557325011196657e-11	-0.19929121	0.062478155	0.95851564	-0.7618599	-0.50867367	0.38801876
1.0383128834218446e-10	-0.15085025	-0.036075372	0.9660138	-0.74086785	-0.5733294	0.33474025
1.1229811333429347e-10	-0.10542991	-0.13946119	0.95968556	-0.71630794	-0.6331251	0.27497205
1.2078464110966386e-10	-0.06417772	-0.24390186	0.93907034	-0.68774986	-0.68729573	0.21034658
1.293190881750474e-10	-0.025718598	-0.3476494	0.9041185	-0.65396774	-0.7363432	0.14126845
1.37799188206123e-10	0.011966869	-0.44700512	0.8557036	-0.61433834	-0.77965325	0.069260605
1.4631609847664996e-10	0.052782677	-0.54027104	0.7940525	-0.5675624	-0.8173278	-0.0059447438
1.5475044949806626e-10	0.10023043	-0.623074	0.7210969	-0.5135802	-0.8481615	-0.08316336
1.6310616778193263e-10	0.15830141	-0.69208354	0.6383772	-0.45185557	-0.87115926	-0.16270517
1.7118922623597975e-10	0.22841688	-0.7422819	0.54994947	-0.38367662	-0.88442355	-0.24325918
1.7912780599529259e-10	0.31278735	-0.7707577	0.45685923	-0.30817342	-0.88609964	-0.32677203
1.8693526906562875e-10	0.41100812	-0.7729507	0.36148745	-0.22580962	-0.87278634	-0.41412577
1.9470199221066814e-10	0.5214033	-0.7435795	0.2656299	-0.13731094	-0.8391668	-0.5068787
2.024484408847053e-10	0.63857555	-0.67706156	0.17249395	-0.046396125	-0.7777346	-0.60511667
2.099362067122887e-10	0.7499809	-0.5734103	0.08871846	0.03623791	-0.68294114	-0.70358866
2.172925630965667e-10	0.84681153	-0.4331059	0.016569551	0.098990165	-0.54737854	-0.79827666
2.246674832598191e-10	0.9192947	-0.25783548	-0.04139137	0.12279288	-0.3650737	-0.8795369
2.3207956897723577e-10	0.95607513	-0.0557808	-0.08116564	0.080936454	-0.14343813	-0.9269288
2.39228670380276e-10	0.9500678	0.15063003	-0.09907583	-0.04113202	0.078184575	-0.9145703
2.458241742721297e-10	0.9068928	0.3378347	-0.09647176	-0.22126286	0.24890141	-0.8350734
2.52372877017303e-10	0.8316504	0.50861996	-0.07576214	-0.4349208	0.34946322	-0.69086057
2.5925690254606217e-10	0.725725	0.6614812	-0.035880145	-0.64892685	0.3645647	-0.48950925
2.66364505427625e-10	0.5993088	0.78338736	0.022052795	-0.81398696	0.29876065	-0.26417866
2.735010286318947e-10	0.4681183	0.86664665	0.09362049	-0.9057371	0.18787624	-0.0552641
2.807197610723521e-10	0.3431139	0.91318566	0.17544991	-0.93525296	0.06765374	0.117106356
2.8835760348719596e-10	0.22920242	0.92718923	0.26778984	-0.92476416	-0.044114802	0.2507392
2.961422109068631e-10	0.13878769	0.91226405	0.36363533	-0.8969602	-0.13460834	0.3399867
3.038981092839052e-10	0.07675377	0.875992	0.4572326	-0.8692625	-0.20627002	0.39039674
3.1163394111988753e-10	0.04191162	0.82486176	0.545929	-0.847981	-0.2688582	0.41148138
3.190928360307756e-10	0.03127473	0.76552427	0.62511706	-0.8321917	-0.32813188	0.41233644
3.2605255868805795e-10	0.038640358	0.703409	0.6921595	-0.8180001	-0.3849229	0.40208212
3.326815642679805e-10	0.05829861	0.63915265	0.74904424	-0.80234194	-0.4393507	0.38647112
3.390554747213975e-10	0.0862696	0.5730672	0.79673123	-0.7845523	-0.48984733	0.36830935
3.45301716156861e-10	0.1200132	0.5043738	0.83632815	-0.76512814	-0.5357387	0.34836593
3.5147066949273285e-10	0.15743782	0.43284798	0.86811423	-0.7452299	-0.5766316	0.326461
3.575843901396457e-10	0.19673061	0.35859272	0.8921142	-0.72595215	-0.6128554	0.30183142
3.6368462186398077e-10	0.2365596	0.281582	0.9083594	-0.70774555	-0.64551866	0.2733048
3.6984588662585905e-10	0.2761195	0.20150855	0.91677064	-0.6901901	-0.6761527	0.23946254
3.7614573861607435e-10	0.3148724	0.118218176	0.9169614	-0.67205834	-0.70618325	0.1989574
3.8257817316734777e-10	0.35204393	0.032988675	0.9083996	-0.65167737	-0.7362301	0.15139772
3.890082112716977e-10	0.38662136	-0.050850477	0.8911582	-0.62761694	-0.7656874	0.09825947
3.953940215546132e-10	0.41872334	-0.13107365	0.8657565	-0.5986641	-0.7937743	0.041110422
4.016545356173768e-10	0.4487371	-0.20507349	0.8332929	-0.5646355	-0.8192293	-0.017897887
4.0789555282046615e-10	0.47821167	-0.27256647	0.7940595	-0.52498823	-0.8414963	-0.07863123
4.1413353662490116e-10	0.50838417	-0.33209503	0.7486961	-0.47986826	-0.8596117	-0.14064057
4.2033476039295085e-10	0.5402553	-0.38178664	0.69832665	-0.4299357	-0.8725016	-0.2034837
4.26501592079747e-10	0.5748283	-0.42024532	0.6439437	-0.37558326	-0.87916136	-0.26750717
4.3269417936849195e-10	0.6131675	-0.44631505	0.58605856	-0.31651476	-0.8783013	-0.33395115
4.3895373696934324e-10	0.6558994	-0.4583417	0.52537876	-0.25244722	-0.86787534	-0.40398738
4.4524581103974306e-10	0.70256233	-0.45443833	0.46349213	-0.1840926	-0.84513956	-0.4777808
4.514057362923473e-10	0.7508304	-0.43384695	0.40341493	-0.1144557	-0.8077281	-0.55333024
4.574686758037597e-10	0.79914534	-0.39652964	0.34618783	-0.045565803	-0.7524479	-0.6302101
4.635238470849681e-10	0.8458779	-0.34206393	0.29237318	0.01952107	-0.674757	-0.707846
4.696233303782632e-10	0.88854086	-0.27023607	0.2430394	0.07468773	-0.56967795	-0.78378534
4.757525486243632e-10	0.9237275	-0.1822579	0.1998969	0.10973575	-0.43424734	-0.85239124
4.817778971034319e-10	0.94769907	-0.08268114	0.1651424	0.11180221	-0.2729593	-0.9040316
4.877733150544044e-10	0.95848304	0.025975712	0.13925886	0.0689768	-0.09238434	-0.9285534
4.938851284327058e-10	0.9542166	0.14230531	0.122717634	-0.030158438	0.0949833	-0.91248274
4.999804257838785e-10	0.9339452	0.25905037	0.116675265	-0.18338187	0.25871682	-0.8438676
5.05934925615721e-10	0.8993597	0.3690196	0.12097727	-0.36874387	0.36895084	-0.72332495
5.118844750244431e-10	0.8521115	0.47055334	0.13504946	-0.55983263	0.41222787	-0.55916435
5.179049970735238e-10	0.7943541	0.5612117	0.15853006	-0.7269635	0.38791135	-0.3683065
5.239702445534935e-10	0.72977734	0.63765085	0.19051625	-0.8466043	0.31161046	-0.17475975
5.301330373223582e-10	0.6617239	0.69854987	0.23020355	-0.9133007	0.20687737	0.003072419
5.362524225642573e-10	0.5956702	0.74200743	0.27523804	-0.93434364	0.09845135	0.1498674
5.424455811288876e-10	0.53384113	0.7694141	0.32489553	-0.92542505	-0.0014960481	0.2654393
5.487209032553153e-10	0.4791199	0.7815823	0.3777566	-0.90066004	-0.08683503	0.35096645
5.550171489581702e-10	0.43414703	0.77982086	0.43180275	-0.8715339	-0.15662353	0.40913162
5.613182270341473e-10	0.4001215	0.7659708	0.48547852	-0.84521484	-0.21449554	0.44420084
5.676917524164935e-10	0.37711602	0.74151033	0.538074	-0.8244419	-0.26625776	0.46055815
5.741732449417702e-10	0.36505204	0.7075337	0.58866256	-0.8088644	-0.31699464	0.46187755
5.80778463780579e-10	0.36351064	0.66492885	0.6361824	-0.7959469	-0.3699217	0.45174837
5.874969552748822e-10	0.37163046	0.614577	0.67942715	-0.7824432	-0.42548212	0.4336847
5.93996478335889e-10	0.3871728	0.5601233	0.71564686	-0.7668317	-0.47919884	0.41180226
6.002763379512491e-10	0.40781173	0.5029565	0.7448438	-0.7489133	-0.52882266	0.3882731
6.064365581085992e-10	0.43200064	0.44327286	0.76753736	-0.7293808	-0.5736409	0.36354432
6.125245011364902e-10	0.45847785	0.38154063	0.783882	-0.7093807	-0.6134462	0.3373247
6.185744830250633e-10	0.4862396	0.31831807	0.793941	-0.6898758	-0.64875835	0.30879655
6.246357594330836e-10	0.5146156	0.25404325	0.7977425	-0.6712181	-0.6807089	0.27675334
6.307858884951872e-10	0.5433016	0.18895482	0.7951893	-0.652961	-0.71073693	0.23971117
6.371066307241378e-10	0.57221067	0.123463005	0.7859689	-0.6338915	-0.7401392	0.19618534
6.43536387260012e-10	0.6008136	0.059733137	0.7700028	-0.6125781	-0.7691391	0.14608501
6.499589630534387e-10	0.62861955	0.00049776025	0.7478412	-0.5876418	-0.79713756	0.09066435
6.563063715622253e-10	0.6555911	-0.05221263	0.7203832	-0.5580453	-0.823221	0.031550195
6.625829624878501e-10	0.6821116	-0.09723315	0.6884521	-0.52312964	-0.84649354	-0.030081002
6.688776152155828e-10	0.70892084	-0.1339815	0.6524136	-0.48218584	-0.86621714	-0.0941334
6.751782237691831e-10	0.73624825	-0.16114545	0.61317116	-0.4353478	-0.88120365	-0.15990697
6.814398831654312e-10	0.763997	-0.17757627	0.5719644	-0.38327456	-0.89021796	-0.22675776
6.87682650809071e-10	0.7920958	-0.18264489	0.5296887	-0.32621133	-0.8920503	-0.2950995
6.939802974539443e-10	0.8204142	-0.17572302	0.48689908	-0.26381987	-0.8849737	-0.36622167
7.00347040752492e-10	0.84819394	-0.15615341	0.4446264	-0.1963905	-0.8664091	-0.44086275
7.065461753087357e-10	0.8733221	-0.12506036	0.4055237	-0.12757504	-0.83438617	-0.51645994
7.126591008722224e-10	0.8949653	-0.08330048	0.36999273	-0.058605466	-0.7857898	-0.59360594
7.18716571979058e-10	0.91199565	-0.03201987	0.33870408	0.007436346	-0.716935	-0.6715822
7.247872814189922e-10	0.9233443	0.027825154	0.3121236	0.065752454	-0.62306947	-0.74897736
7.308954493479516e-10	0.927845	0.09468049	0.29095042	0.107953764	-0.5000824	-0.8217904
7.369202544537447e-10	0.92469484	0.1649185	0.27611098	0.122042954	-0.35003433	-0.8815988
7.429198984383619e-10	0.913732	0.23666644	0.26766968	0.09603042	-0.17701484	-0.91902524
7.489340401617357e-10	0.89508504	0.3078801	0.26571056	0.018990004	0.0069001312	-0.9214937
7.550386694466013e-10	0.86904615	0.3769432	0.27031183	-0.114230655	0.18135627	-0.8754883
7.610384302572278e-10	0.83767354	0.4394582	0.28101483	-0.28802076	0.31361118	-0.7765228
7.669450830297079e-10	0.80270505	0.49406642	0.29706532	-0.47627005	0.3846713	-0.63180226
7.728581920240638e-10	0.76534617	0.54057115	0.31798849	-0.6517985	0.39029607	-0.45514432
7.788837959515965e-10	0.7266772	0.57873535	0.3435381	-0.79194814	0.33861837	-0.2639408
7.849799784673645e-10	0.6887445	0.60749555	0.3728469	-0.8821511	0.24899475	-0.080138214
7.911180958484352e-10	0.65339595	0.6264853	0.40492097	-0.9239183	0.14421289	0.08030912
7.972368283040746e-10	0.62232935	0.63583934	0.43849543	-0.92918205	0.04252355	0.20920126
8.034094040798038e-10	0.59618926	0.63621193	0.47304195	-0.9125511	-0.04794051	0.30769295
8.097457183592223e-10	0.57542074	0.62793475	0.5082741	-0.8857155	-0.12541696	0.3792005
8.160692031438744e-10	0.5610774	0.6118243	0.54232216	-0.85827285	-0.18915479	0.4251428
8.224282341898307e-10	0.552997	0.58863914	0.5746368	-0.83499694	-0.24409588	0.45021012
8.288945734324361e-10	0.55091774	0.5588169	0.6047858	-0.81699973	-0.29582223	0.4583098
8.354848732465524e-10	0.5545274	0.52289516	0.6320387	-0.8028138	-0.348555	0.45287004
8.422188611479653e-10	0.56334585	0.48141423	0.65567863	-0.7893064	-0.40444303	0.43732858
8.489044402040493e-10	0.5762945	0.43645248	0.67447084	-0.77383155	-0.46124282	0.41557464
8.553561264179114e-10	0.59186673	0.39044985	0.6878581	-0.75554496	-0.5151187	0.3910663
8.616287462722764e-10	0.60913783	0.3441788	0.6962055	-0.7348137	-0.5644445	0.36518398
8.677992567116099e-10	0.6275421	0.2980749	0.69983816	-0.712687	-0.60865504	0.33804616
8.739026958902593e-10	0.64661855	0.25280178	0.698972	-0.69040126	-0.647777	0.30916357
8.799720019757135e-10	0.66606086	0.20901583	0.69380933	-0.6687913	-0.6825447	0.27756783
8.860676470881346e-10	0.68578124	0.16720217	0.6844914	-0.6479221	-0.71422005	0.24188744
8.922726112961938e-10	0.7058628	0.12781592	0.6710311	-0.62701374	-0.74417716	0.200521
8.98620939205528e-10	0.72629416	0.09181596	0.6534954	-0.6046811	-0.773263	0.15232432
9.049947785121403e-10	0.74661577	0.060993955	0.63254434	-0.5795694	-0.8011407	0.09796816
9.113363455532982e-10	0.766578	0.0364825	0.6089395	-0.55023545	-0.8271772	0.038583983
9.175524449657079e-10	0.7858029	0.019125454	0.5837404	-0.51607054	-0.8501937	-0.023767894
9.237150855829003e-10	0.80437124	0.00898267	0.557385	-0.47629455	-0.86946315	-0.08859124
9.298878411966284e-10	0.82223535	0.00625059	0.5302879	-0.4304489	-0.8840217	-0.1556807
9.36045036322503e-10	0.8389767	0.01111377	0.50325316	-0.37897667	-0.89255697	-0.22427802
9.421492500940284e-10	0.8540741	0.023385875	0.47713044	-0.32273164	-0.8937475	-0.29387417
9.482292858107937e-10	0.8671186	0.042727754	0.4524473	-0.2621182	-0.8861098	-0.36502913
9.543526778494308e-10	0.8776882	0.06889029	0.4295746	-0.19721173	-0.8674157	-0.4389545
9.605873476969624e-10	0.88522553	0.10165063	0.40894622	-0.12839247	-0.8341988	-0.51686823
9.666954867778568e-10	0.8889488	0.13875146	0.39186743	-0.060395848	-0.78426677	-0.5956394
9.726337186785236e-10	0.8887296	0.17845526	0.37864593	0.002869732	-0.7153444	-0.6735671
9.784978377783078e-10	0.88460255	0.21998876	0.36915714	0.057397503	-0.623745	-0.7496379
9.84372629497864e-10	0.87655723	0.26266423	0.36339355	0.09646943	-0.50554746	-0.8209401
9.903133836077282e-10	0.86462563	0.30561182	0.36145443	0.10970879	-0.3585883	-0.8813181
9.962758748513746e-10	0.8492017	0.34723705	0.36340672	0.08425989	-0.1879571	-0.92007923
1.0020954111864424e-09	0.83136654	0.3853106	0.36893833	0.011985916	-0.011051163	-0.9248554
1.0078643109384588e-09	0.8116426	0.41961792	0.37772596	-0.10882608	0.15489301	-0.8862457
1.0136999494935962e-09	0.790384	0.4500661	0.3896442	-0.27207014	0.28912577	-0.7971802
1.0196332138305369e-09	0.7682596	0.47602925	0.4044812	-0.45835122	0.3696336	-0.65839815
1.025466366656426e-09	0.74682385	0.49624974	0.42128617	-0.63296455	0.38510013	-0.48804104
1.0312813184338215e-09	0.726515	0.51097256	0.43974233	-0.77396315	0.34454584	-0.3042322
1.0371613246401166e-09	0.70771694	0.52031255	0.45962334	-0.86993104	0.26485172	-0.12390435
1.043103822866116e-09	0.69104767	0.5242021	0.4804316	-0.91987944	0.1661121	0.037796214
1.049174657716677e-09	0.6768666	0.522665	0.5018879	-0.93255216	0.06417855	0.17381032
1.05528592394448e-09	0.66578263	0.515852	0.5231526	-0.92029405	-0.028699433	0.2795383
1.0614123157395243e-09	0.65801454	0.50416124	0.5436234	-0.8957122	-0.10791346	0.35658178
1.0676300749161007e-09	0.6535374	0.48783267	0.5630539	-0.8678672	-0.17483616	0.40916005
1.073915111640574e-09	0.65235114	0.46732992	0.5808776	-0.84266156	-0.23242128	0.4403689
1.0802066065187088e-09	0.65426934	0.44339427	0.5965057	-0.82260257	-0.28481868	0.4536133
1.0865498672100643e-09	0.65900916	0.41645712	0.6096962	-0.8068147	-0.3367153	0.4526918
1.0929844367143145e-09	0.66629636	0.3869522	0.6201827	-0.79265547	-0.3909819	0.44097272
1.0995476245424722e-09	0.6758616	0.35535085	0.62768245	-0.77700186	-0.44819057	0.42142272
1.1061384776159062e-09	0.68718946	0.32288116	0.6318506	-0.7579336	-0.5057124	0.39695957
1.112480143250612e-09	0.69932747	0.29170483	0.63265276	-0.7360079	-0.55874205	0.37063253
1.1186742248667773e-09	0.7120294	0.2620259	0.630447	-0.71203834	-0.6065095	0.343052
1.1247794238212214e-09	0.72509986	0.23418021	0.6254938	-0.6872735	-0.64882	0.31404826
1.1308284126123913e-09	0.73836696	0.20858663	0.6180332	-0.66284	-0.68609256	0.28293803
1.1368657649802627e-09	0.7517338	0.18559937	0.60827285	-0.639261	-0.71934384	0.24857879
1.1429639140197847e-09	0.7651905	0.16551204	0.5963411	-0.6162321	-0.7498994	0.20945054
1.1491746418025476e-09	0.77868044	0.14878564	0.58238006	-0.59275526	-0.7788188	0.16413313
1.1554307378212631e-09	0.79187256	0.13617463	0.5668564	-0.5676062	-0.8062332	0.112475656
1.1616855352297542e-09	0.8044716	0.12815252	0.55029386	-0.5392341	-0.83183986	0.054987133
1.167885462966113e-09	0.8161662	0.12494174	0.5332901	-0.5064168	-0.85478705	-0.007037098
1.1739570351663575e-09	0.82662684	0.12645629	0.5165066	-0.46876326	-0.87389326	-0.07165598
1.1800141213911493e-09	0.8358441	0.13251662	0.50005853	-0.42532834	-0.88844174	-0.13897185
1.1860853152345186e-09	0.84361047	0.14297642	0.48428202	-0.3759421	-0.8972144	-0.20855433
1.1921303815025322e-09	0.849631	0.15745042	0.46967044	-0.3213233	-0.8987848	-0.279547
1.198125829698635e-09	0.85368884	0.17538656	0.45661342	-0.26239094	-0.8917084	-0.35161927
1.2041087730158685e-09	0.85565305	0.19631515	0.44531703	-0.19968452	-0.87415147	-0.4254154
1.210145253876906e-09	0.85539186	0.21987216	0.4359373	-0.13369352	-0.843318	-0.50202477
1.216247903041465e-09	0.8527777	0.24546155	0.42872548	-0.06618857	-0.795512	-0.5816347
1.222218089297597e-09	0.8479618	0.27147713	0.4240206	-0.0025578488	-0.72879606	-0.6608673
1.22804859198882e-09	0.84121555	0.29710293	0.4217389	0.0524791	-0.64080435	-0.73763734
1.2338270612626893e-09	0.83272785	0.322038	0.42173824	0.09318765	-0.52825767	-0.8095601
1.2396281744388374e-09	0.8226645	0.34597477	0.42394817	0.110852204	-0.38886395	-0.87165135
1.2455031150563143e-09	0.81122905	0.36850718	0.42833254	0.09372946	-0.22403812	-0.9151798
1.2513857310713095e-09	0.79890645	0.38882527	0.43472183	0.030749515	-0.045551706	-0.92756873
1.2571386708005517e-09	0.7864074	0.40610766	0.44270188	-0.0797687	0.124008484	-0.8980705
1.2628483486960181e-09	0.77395564	0.42041665	0.45208213	-0.23144288	0.2647584	-0.8210409
1.268612584295467e-09	0.7617196	0.43176743	0.4627654	-0.40914416	0.35787582	-0.6961673
1.2744923326930189e-09	0.7499545	0.4400065	0.47462365	-0.58904266	0.39033315	-0.5312181
1.2803031129190302e-09	0.73936254	0.44479147	0.4869892	-0.73959017	0.36337936	-0.34914848
1.2860904320449295e-09	0.7301009	0.4462775	0.4996363	-0.846586	0.29340747	-0.16846168
1.291947500677184e-09	0.7222408	0.4445598	0.51246566	-0.90822715	0.19905674	-0.002061772
1.2978761799355114e-09	0.7159775	0.43969816	0.5251787	-0.9303805	0.097772814	0.14013937
1.3039022948526562e-09	0.71143615	0.431778	0.53752166	-0.9242194	0.0014239363	0.25464478
1.3099878797227797e-09	0.7087325	0.42103067	0.5491117	-0.9017687	-0.08304671	0.34101605
1.3161119506267433e-09	0.7078754	0.40777367	0.5596306	-0.873285	-0.15417303	0.40179288
1.32236260103404e-09	0.70882607	0.39211583	0.5689509	-0.84537476	-0.21508121	0.44091877
1.3286487874305882e-09	0.71149194	0.37464178	0.57668555	-0.8221528	-0.26899728	0.46094385
1.33494694439098e-09	0.71569747	0.3558657	0.5826344	-0.80415314	-0.3204207	0.46536735
1.341296386740851e-09	0.72128284	0.33614314	0.5867015	-0.7893281	-0.3731514	0.45764518
1.347739506434552e-09	0.7281046	0.3158319	0.5887909	-0.77456063	-0.42888772	0.44080195
1.3543122568028909e-09	0.7360219	0.29534593	0.5888034	-0.7569631	-0.4870808	0.4173697
1.3607657332336002e-09	0.7445066	0.27598742	0.5867846	-0.7358722	-0.5432288	0.3904716
1.367023908032515e-09	0.75320154	0.2584029	0.5830013	-0.7120436	-0.59449255	0.361979
1.3731690952347042e-09	0.7620042	0.24268977	0.5776703	-0.68654174	-0.6403415	0.33213434
1.3792476418884897e-09	0.770803	0.22902375	0.57098496	-0.6606074	-0.6808341	0.30057928
1.3852929214111758e-09	0.77948844	0.21759406	0.5631337	-0.6351678	-0.7166112	0.266492
1.3913610738058506e-09	0.78798944	0.20854855	0.55426276	-0.6104353	-0.74880236	0.22858053
1.3975145729001043e-09	0.7962338	0.20206627	0.5444978	-0.5858627	-0.7785737	0.18533415
1.4037078929782173e-09	0.80399096	0.19842096	0.53415334	-0.5605894	-0.8063359	0.1361674
1.409941516403986e-09	0.81109005	0.19773766	0.52350026	-0.53304416	-0.83227044	0.080712266
1.4161578065038483e-09	0.81730264	0.20002694	0.5129207	-0.50182486	-0.8557492	0.019778948
1.4222653502095336e-09	0.82241553	0.20507239	0.5028402	-0.4661872	-0.8756407	-0.044795353
1.4283086978994069e-09	0.82637626	0.2126261	0.49342272	-0.42528176	-0.89108485	-0.1123308
1.4343684820611843e-09	0.82913846	0.22252159	0.48476627	-0.37834874	-0.9010423	-0.18278891
1.4404386498092216e-09	0.83060384	0.23446174	0.4770915	-0.3255583	-0.9040494	-0.2554656
1.4464754563501092e-09	0.83071464	0.24799348	0.47062394	-0.267832	-0.8985432	-0.32951656
1.452476925665214e-09	0.8294779	0.26269078	0.46548584	-0.20608234	-0.88280135	-0.4048845
1.4584906176163782e-09	0.8269178	0.27824154	0.46173185	-0.1410325	-0.8544137	-0.4822948
1.4645780043611312e-09	0.8230521	0.29437664	0.45941877	-0.07381914	-0.8097835	-0.56257576
1.4706567529195108e-09	0.81803054	0.31043538	0.45862576	-0.00835219	-0.7455395	-0.64409995
1.4765817107185466e-09	0.8121722	0.32562214	0.45929527	0.049258083	-0.6600625	-0.72323275
1.4824118640050674e-09	0.8056556	0.33975026	0.461293	0.093317956	-0.5505366	-0.7975419
1.4882217452041243e-09	0.79861486	0.35270348	0.46452388	0.11574968	-0.41471934	-0.86257315
1.4940739985274661e-09	0.79118174	0.36433554	0.46892023	0.10560443	-0.25328824	-0.9105072
1.4999952828247412e-09	0.7835349	0.3744209	0.4743976	0.050821442	-0.073875494	-0.9295843
1.5058362411187167e-09	0.77608466	0.3825266	0.48065913	-0.053189263	0.10172362	-0.9073677
1.5115797864136267e-09	0.7690483	0.38858646	0.48748243	-0.19991493	0.2503412	-0.83755225
1.5173109024353637e-09	0.7624929	0.3926708	0.4947767	-0.37437716	0.35288218	-0.72015
1.5231109123870063e-09	0.75649357	0.3947831	0.5024703	-0.5543683	0.39644882	-0.562206
1.5290043756683902e-09	0.7511915	0.39486995	0.5104168	-0.71388453	0.37905094	-0.378975
1.534854944472882e-09	0.74682784	0.39297208	0.51824445	-0.83037204	0.31405985	-0.19446991
1.5407028747989123e-09	0.7434362	0.38920975	0.5258259	-0.89971185	0.22170861	-0.024277061
1.5466146443764905e-09	0.74103487	0.3836586	0.53307146	-0.9278755	0.119574964	0.1228407
1.5526256047420568e-09	0.73966295	0.37639812	0.5398445	-0.9254119	0.020410212	0.24279417
1.5587055824591646e-09	0.7393533	0.36761743	0.54593724	-0.9042527	-0.067802936	0.3346114
1.5648365706379262e-09	0.7400919	0.3575519	0.5511793	-0.8750779	-0.14259647	0.4004732
1.5710469378223485e-09	0.7418435	0.3463968	0.55545783	-0.84546214	-0.2058245	0.44387642
1.5773546155848567e-09	0.7445606	0.3343866	0.5586578	-0.8198447	-0.26138964	0.46793795
1.5836695045501512e-09	0.74811405	0.32199827	0.5606515	-0.7998797	-0.31320548	0.47554007
1.590016833500436e-09	0.7523995	0.30950862	0.56141394	-0.7840374	-0.3654752	0.47011438
1.5964373757448388e-09	0.75732493	0.29716948	0.5609305	-0.7693021	-0.42054543	0.45471287
1.6029680229418362e-09	0.7627973	0.2852565	0.55919075	-0.75253755	-0.47846302	0.43192968
1.6095049958452203e-09	0.76859117	0.27429503	0.5562695	-0.7320674	-0.53627056	0.40440074
1.6158142359336216e-09	0.7743423	0.26490217	0.5524358	-0.7085764	-0.58950764	0.37489334
1.6219900356708389e-09	0.7799939	0.25705993	0.54784006	-0.6829222	-0.6374448	0.34393033
1.6280919223320326e-09	0.7854793	0.25080168	0.5426146	-0.65629864	-0.67995805	0.31135747
1.6341534751374305e-09	0.79071826	0.24618456	0.5368949	-0.6297677	-0.7174616	0.27656272
1.640221797981329e-09	0.79564464	0.24325061	0.5307955	-0.60380393	-0.7509039	0.238446
1.6463602425931921e-09	0.80019855	0.24204995	0.52440995	-0.5781279	-0.7814248	0.19554722
1.6525243005493374e-09	0.8042359	0.24263479	0.5179491	-0.5521737	-0.8094862	0.14721121
1.6587465174111494e-09	0.8076731	0.24499789	0.5115503	-0.52443916	-0.83553743	0.09260269
1.664975299417173e-09	0.81038874	0.24905077	0.5054359	-0.49351802	-0.8591091	0.032156847
1.6711391680946704e-09	0.81229544	0.25458258	0.49982652	-0.45835987	-0.87921685	-0.032776613
1.6772064335867667e-09	0.8133672	0.26133013	0.49486813	-0.41832367	-0.8947859	-0.10080329
1.683278908292186e-09	0.81361496	0.26917094	0.49057984	-0.37237528	-0.9048688	-0.17206061
1.689379782571204e-09	0.8130296	0.27791014	0.48704594	-0.32028994	-0.90799934	-0.24608774
1.695469180602455e-09	0.81163263	0.2872408	0.48436567	-0.26280034	-0.9024887	-0.3219417
1.7015237279152917e-09	0.8094841	0.29685882	0.4825876	-0.2009768	-0.88653564	-0.3991448
1.7075759318801353e-09	0.80664796	0.30655026	0.4817175	-0.13575186	-0.8577768	-0.47810712
1.7136845212847944e-09	0.8031787	0.3161503	0.4817579	-0.06837147	-0.8127257	-0.5595417
1.719819818732633e-09	0.79919285	0.3253584	0.48270178	-0.0022442993	-0.74752116	-0.64249414
1.7258442857391087e-09	0.7949125	0.33375427	0.48446208	0.05637267	-0.6599758	-0.7234202
1.7317552313903513e-09	0.7904856	0.34118256	0.48692754	0.10085765	-0.54791194	-0.79898256
1.7376267303547193e-09	0.78599	0.3476142	0.49002245	0.12290742	-0.4093146	-0.86458063
1.7435187498095177e-09	0.78150225	0.35299617	0.49368465	0.11148953	-0.24535947	-0.91220695
1.7494592405807838e-09	0.77712005	0.3572404	0.4978392	0.054803878	-0.064266026	-0.93007594
1.755374657728575e-09	0.77300817	0.36022308	0.50232756	-0.0526768	0.11381125	-0.9054797
1.7611728176817175e-09	0.7693166	0.36190948	0.50695634	-0.20286107	0.26267537	-0.8321846
1.7669291292931364e-09	0.76606417	0.36236787	0.51166576	-0.37918186	0.36318406	-0.7114833
1.7727259829924558e-09	0.76327145	0.36162898	0.5164119	-0.55881536	0.4037358	-0.55167407
1.778605969149698e-09	0.7609868	0.35970065	0.52111703	-0.7167451	0.38377133	-0.36806273
1.7845304188906346e-09	0.75928044	0.35663685	0.5256365	-0.8328786	0.3158528	-0.18141371
1.7904402909423354e-09	0.7581923	0.35256281	0.52982104	-0.9007562	0.22093399	-0.010418355
1.7963736289572188e-09	0.7577177	0.3475733	0.53360516	-0.9270193	0.117431425	0.13579996
1.8023985930629957e-09	0.7578548	0.34172782	0.53693914	-0.92297524	0.017404862	0.25457653
1.8084950030517695e-09	0.7585994	0.33517626	0.53972256	-0.90052193	-0.0715173	0.34539106
1.8146266059435298e-09	0.7599206	0.32811764	0.5418697	-0.8703049	-0.14671248	0.41032955
1.8208293063434785e-09	0.76178706	0.32068795	0.5433385	-0.8397751	-0.2101639	0.45309195
1.8271281921247181e-09	0.76416165	0.3130461	0.5440867	-0.8133192	-0.26577196	0.47679862
1.8334621998754136e-09	0.7669607	0.30546802	0.5440832	-0.7926078	-0.31762883	0.48419738
1.8398226785571696e-09	0.7701027	0.2981674	0.5433365	-0.7763459	-0.36973214	0.4784577
1.846250756297349e-09	0.77352536	0.29129878	0.5418654	-0.761525	-0.424594	0.4625461
1.8527843066433555e-09	0.77716225	0.28502718	0.5396931	-0.74492615	-0.48242903	0.43899503
1.8593536369244727e-09	0.7808798	0.2796088	0.5369014	-0.7245998	-0.54067355	0.4102908
1.8656850654826097e-09	0.7844268	0.27535936	0.5337252	-0.7011587	-0.59446913	0.3794632
1.8718783027417437e-09	0.78777766	0.2722206	0.5302527	-0.67535716	-0.6430435	0.34710813
1.877996252457453e-09	0.79089534	0.2701699	0.52656525	-0.6483403	-0.6862039	0.31315136
1.8840763045265875e-09	0.79373455	0.26919723	0.52274734	-0.62116504	-0.7242961	0.27705145
1.8901614428376094e-09	0.7962537	0.26929042	0.518874	-0.5943749	-0.7581647	0.23780067
1.8963034802539117e-09	0.79841185	0.27044132	0.515013	-0.567819	-0.78884095	0.19406132
1.9024664019775382e-09	0.8001402	0.2726098	0.5112875	-0.5410078	-0.8168071	0.14514084
1.9086949683745102e-09	0.80140203	0.2757509	0.5077694	-0.51248384	-0.8425638	0.09004361
1.9149406878714016e-09	0.80215037	0.27975076	0.5045796	-0.48088238	-0.8656667	0.029059678
1.92114292275063e-09	0.80236703	0.28443593	0.5018235	-0.4450672	-0.88517684	-0.03670601
1.9272410774060235e-09	0.8020697	0.2895942	0.49957508	-0.40449223	-0.8999229	-0.10563389
1.9333429707140737e-09	0.8012807	0.29515216	0.49783	-0.358021	-0.90893775	-0.1779538
1.9394801685612154e-09	0.8000209	0.30098343	0.49661666	-0.30530286	-0.91069	-0.2532976
1.9456157400257243e-09	0.7983372	0.30689326	0.495964	-0.24700825	-0.90337306	-0.33071312
1.9517218752767595e-09	0.7962964	0.31269634	0.49587277	-0.1842773	-0.885042	-0.40959573
1.957825664958955e-09	0.7939576	0.31826916	0.49632534	-0.118216366	-0.8531744	-0.49020115
1.9639827576379866e-09	0.79137033	0.32351965	0.49730536	-0.05034009	-0.8041024	-0.5730862
1.9701732746337044e-09	0.7886194	0.3282961	0.49877995	0.015655676	-0.7337006	-0.6572314
1.976261326182912e-09	0.78584903	0.33239627	0.5006574	0.072967686	-0.63970596	-0.73879784
1.9822361930625987e-09	0.783144	0.33576265	0.50285405	0.11418069	-0.5201943	-0.8138601
1.98816751663288e-09	0.78054214	0.33840048	0.5053193	0.1301737	-0.37381753	-0.87704104
1.994114082425858e-09	0.7780804	0.3403007	0.5080093	0.109389566	-0.20313382	-0.9194123
2.0000715457221786e-09	0.77581763	0.34143442	0.51085436	0.040967613	-0.019587792	-0.92852974
2.0060152970601048e-09	0.77381104	0.34179223	0.5137724	-0.07875083	0.15594135	-0.8923748
2.0118418572231513e-09	0.77212626	0.34140372	0.51664215	-0.23834594	0.2962692	-0.806523
2.017623275654252e-09	0.77076167	0.34032032	0.5194335	-0.41856837	0.38358244	-0.6747053
2.023439419781094e-09	0.7697207	0.33856988	0.5221217	-0.5954856	0.40929368	-0.5074833
2.0293320366996164e-09	0.76902014	0.33617806	0.5246609	-0.7452023	0.37638947	-0.32139006
2.035275500972563e-09	0.76867986	0.33320796	0.52697635	-0.85078627	0.29970333	-0.1365063
2.0412118445423872e-09	0.76870215	0.329767	0.52899235	-0.90864164	0.20040472	0.029906979
2.047170455010763e-09	0.7690742	0.32592997	0.5306764	-0.92695045	0.09593473	0.17005728
2.053218696360481e-09	0.76978827	0.32174516	0.5320054	-0.9175003	-0.0030099265	0.28246388
2.059337633454118e-09	0.7708265	0.31732446	0.5329371	-0.8919802	-0.0900012	0.36740115
2.0654801040279587e-09	0.7721535	0.3128127	0.5334426	-0.8605102	-0.16312203	0.42718777
2.0716972670336904e-09	0.77374667	0.30828887	0.53351444	-0.8298087	-0.22499795	0.46568307
2.0780133102248533e-09	0.77557635	0.3038574	0.53314424	-0.80371386	-0.27967963	0.48585033
2.084359871256402e-09	0.777578	0.29968855	0.5323442	-0.7834754	-0.33117604	0.4903272
2.09073649152653e-09	0.77969843	0.29589608	0.53114146	-0.7674735	-0.3833545	0.48216632
2.0971845679839415e-09	0.7818956	0.29256406	0.5295633	-0.7525835	-0.43846118	0.46418047
2.103738997761227e-09	0.784122	0.2897816	0.52764183	-0.7356226	-0.4964446	0.43878075
2.110287941891206e-09	0.78627837	0.28767803	0.52546734	-0.71491843	-0.55424064	0.40857407