# t (s)	mx ()	my ()	mz ()	m.region1x ()	m.region1y ()	m.region1z ()
0	0	1	0	0	1	0
1.023e-12	-0.024338653	0.99957335	0.015730865	-0.027139	0.9994877	0.016967643
2.047e-12	-0.048081815	0.9983187	0.031553768	-0.05362459	0.99798155	0.03402089
4.095e-12	-0.0936257	0.9934864	0.06336962	-0.10444329	0.99218607	0.068251655
8.191e-12	-0.17651112	0.975643	0.12729137	-0.19690585	0.9708489	0.13667525
1.545201519774169e-11	-0.29534888	0.92358065	0.2394975	-0.32931763	0.90910524	0.25509176
2.264481714248159e-11	-0.37828195	0.85572624	0.34645578	-0.42209896	0.8296963	0.36526042
2.9964670601386084e-11	-0.4305572	0.77851754	0.44871643	-0.48236054	0.7406914	0.46760362
3.749633996133899e-11	-0.45569927	0.6961885	0.5455315	-0.5154183	0.6472453	0.56153446
4.529264666447585e-11	-0.45714104	0.61113256	0.6358971	-0.526271	0.5522088	0.64648974
5.335442975353183e-11	-0.43855065	0.5245479	0.7183276	-0.5196941	0.4570719	0.7216493
6.165451193686854e-11	-0.40406552	0.43650702	0.791238	-0.50036746	0.3621925	0.7862185
7.016743816343814e-11	-0.35804948	0.3460953	0.85321563	-0.47266862	0.26699415	0.8395747
7.891326852101e-11	-0.3045604	0.25149345	0.9031367	-0.44033438	0.17001228	0.88128114
8.794069127350921e-11	-0.24723339	0.15064153	0.93970144	-0.4064353	0.06948909	0.91064095
9.729198182672506e-11	-0.1894199	0.042055752	0.9611282	-0.3735004	-0.03596637	0.926432
1.0700211101728815e-10	-0.13391152	-0.07470976	0.9652527	-0.34332743	-0.14713256	0.926979
1.1673263993376997e-10	-0.084075205	-0.1941481	0.9506328	-0.3174328	-0.2597254	0.9112021
1.2562881122231182e-10	-0.0428662	-0.30316222	0.92091215	-0.29639286	-0.362755	0.88247246
1.3415922056497265e-10	-0.005169421	-0.40502295	0.87808627	-0.2764277	-0.46050864	0.8422498
1.4263392646956252e-10	0.033631153	-0.5009684	0.8222429	-0.2538417	-0.555378	0.7903319
1.511666833231278e-10	0.07799518	-0.589301	0.7534871	-0.2246055	-0.6471695	0.72652364
1.5953858172645113e-10	0.13090119	-0.66451937	0.6749223	-0.18541874	-0.7317653	0.6533271
1.676966687414554e-10	0.19519837	-0.7229967	0.58914036	-0.13305262	-0.80658805	0.5726849
1.7573441585230875e-10	0.2736592	-0.7616486	0.49738148	-0.06393997	-0.86966246	0.48515236
1.8358271753923112e-10	0.36590576	-0.7758364	0.40287054	0.023335317	-0.9166422	0.39302704
1.9135936175297203e-10	0.47143993	-0.76093066	0.30694553	0.13081597	-0.9431684	0.29661763
1.9911460120586632e-10	0.5866277	-0.7112269	0.21216986	0.25851667	-0.9424926	0.19719926
2.0671903157850008e-10	0.7019229	-0.6236997	0.12381826	0.40044367	-0.90729225	0.0989206
2.1411031582039807e-10	0.8062768	-0.49945152	0.046357054	0.5476021	-0.8323026	0.005672086
2.2146473169604834e-10	0.8908836	-0.33904594	-0.018234652	0.6924093	-0.71132004	-0.08103525
2.2887807148312982e-10	0.94480836	-0.14685592	-0.066560045	0.8218778	-0.5395827	-0.15746282
2.3624287472932323e-10	0.9576989	0.06257699	-0.09436226	0.91648626	-0.3226551	-0.21688728
2.435200753278369e-10	0.92622507	0.2722699	-0.09981325	0.95976794	-0.07416332	-0.25377876
2.5076581903562026e-10	0.8533058	0.46759167	-0.08291479	0.9414472	0.18781564	-0.26413324
2.580169105349309e-10	0.7470611	0.6355903	-0.044883236	0.85916644	0.4400723	-0.2452578
2.6526380121525487e-10	0.6201927	0.7666831	0.011496533	0.7218388	0.65791804	-0.19718811
2.7260191195877015e-10	0.48502564	0.85824883	0.083380975	0.545716	0.8251618	-0.12210131
2.801281377300148e-10	0.35317755	0.9109106	0.16789815	0.35147023	0.9328058	-0.023897437
2.879265674850877e-10	0.23508424	0.9276237	0.26198196	0.16094355	0.9798695	0.09191517
2.9604445178779364e-10	0.13956028	0.91306305	0.36202276	-0.0063035707	0.9729326	0.21839751
3.04277078753714e-10	0.074018076	0.8742596	0.46139926	-0.1339965	0.92569464	0.34487677
3.1275454475979416e-10	0.038354732	0.81694037	0.5580623	-0.22100088	0.8518721	0.46743295
3.2163129999739816e-10	0.031453524	0.7439556	0.65029013	-0.26986805	0.7605832	0.5837543
3.3104653568556464e-10	0.051604934	0.6558143	0.7356818	-0.28460982	0.6568813	0.6917927
3.4083208305885483e-10	0.09439066	0.5542916	0.80882627	-0.27108413	0.5456593	0.7866562
3.509162711055646e-10	0.15296085	0.4398038	0.86575866	-0.23768963	0.42793542	0.8657023
3.6097222170107916e-10	0.21781835	0.3165533	0.90239835	-0.19433565	0.3063022	0.92548585
3.709382179490006e-10	0.28190172	0.18756299	0.91782326	-0.1490083	0.18051034	0.965598
3.8098771959196227e-10	0.3419724	0.054425664	0.9118606	-0.10651269	0.04830906	0.9861477
3.9124690336876787e-10	0.39692125	-0.079014696	0.88382095	-0.06995556	-0.090791985	0.98584324
4.0128337670151313e-10	0.44572222	-0.20052753	0.83618116	-0.04165825	-0.2281826	0.9643109
4.110964459944994e-10	0.4921585	-0.3040164	0.7723668	-0.019171355	-0.3602615	0.92300683
4.210131782148821e-10	0.5423829	-0.38658002	0.69348526	0.0028837996	-0.48754004	0.8615964
4.3063392243072915e-10	0.5982945	-0.4393838	0.60661733	0.029871117	-0.60114276	0.78438747
4.398740264861029e-10	0.6606607	-0.45937115	0.51737684	0.06762697	-0.6972	0.6955735
4.48978771131203e-10	0.72962654	-0.4449567	0.42794508	0.12236447	-0.7749524	0.5960355
4.5792680854181835e-10	0.8007344	-0.3944076	0.34293485	0.19793181	-0.8295691	0.48891416
4.668833162827402e-10	0.86815155	-0.30644542	0.265344	0.29772046	-0.85546714	0.37525573
4.756633271021651e-10	0.92152816	-0.18604264	0.20115188	0.41799653	-0.8443229	0.26093367
4.844749608565168e-10	0.95293194	-0.03760583	0.15281789	0.55524063	-0.7872673	0.14755115
4.932772917436461e-10	0.954573	0.12745398	0.12406238	0.6971063	-0.6758348	0.041055467
5.020247383295456e-10	0.92355096	0.29424164	0.1168454	0.8250607	-0.50676507	-0.051414873
5.108622515991573e-10	0.8616361	0.4508279	0.13141437	0.9187916	-0.28053403	-0.12349926
5.198166202065957e-10	0.77571815	0.5844904	0.16686174	0.9546586	-0.010122612	-0.1664544
5.287744595522656e-10	0.6782777	0.6848385	0.21971451	0.91599023	0.27370968	-0.17237969
5.378251315390737e-10	0.58094084	0.7495712	0.2861464	0.80158675	0.5380164	-0.13765484
5.469974756844991e-10	0.49452794	0.77956164	0.3616409	0.62774086	0.74915916	-0.06319539
5.563203735091669e-10	0.4270154	0.77836764	0.44160882	0.4251682	0.885204	0.044546522
5.659145944874428e-10	0.3826537	0.7501983	0.5224311	0.2270088	0.9421114	0.17624332
5.758680111588665e-10	0.36339033	0.6984744	0.6002888	0.06162076	0.9291854	0.3206907
5.860378518084962e-10	0.3683932	0.6273315	0.66977996	-0.052214608	0.865233	0.4640032
5.96421795339015e-10	0.39352366	0.5398527	0.727166	-0.11320518	0.76949114	0.5972451
6.072421741488283e-10	0.43413028	0.43657574	0.76988137	-0.12919918	0.6523712	0.7169443
6.186841965886369e-10	0.48539305	0.31848162	0.79419464	-0.109807044	0.5173683	0.8195876
6.30806395832799e-10	0.5420076	0.1900093	0.79561037	-0.066386476	0.36475745	0.8999971
6.430096195472424e-10	0.597113	0.06595705	0.77229065	-0.014272217	0.20213977	0.9503453
6.548001764795064e-10	0.64781713	-0.03936616	0.7283658	0.033877924	0.03849095	0.96879685
6.666350633454686e-10	0.69786376	-0.12130363	0.66688204	0.07514228	-0.12783527	0.9567938
6.782940694632392e-10	0.74841213	-0.17047936	0.5942569	0.109455176	-0.2873084	0.91522795
6.892837934914446e-10	0.79761267	-0.18231219	0.5202372	0.14091632	-0.4267821	0.8502743
7.000112246879848e-10	0.844929	-0.1583106	0.44827566	0.17807138	-0.5460422	0.7650556
7.107750288613058e-10	0.88680285	-0.09871072	0.38195255	0.22977713	-0.64197826	0.6612486
7.212144933390314e-10	0.9155721	-0.010351045	0.32837954	0.300192	-0.7049575	0.54721296
7.313832545136035e-10	0.92622316	0.09763333	0.29052922	0.39100295	-0.7298669	0.4282558
7.415113571343615e-10	0.9157304	0.21668895	0.26977992	0.5015043	-0.710357	0.30757123
7.516547804595566e-10	0.88358086	0.33576095	0.26728752	0.62450373	-0.638268	0.19103193
7.61832925976312e-10	0.8331323	0.44370386	0.28276563	0.7459879	-0.5075437	0.0861192
7.718775592750474e-10	0.77228844	0.53015405	0.31365448	0.8445636	-0.32185882	0.0027331826
7.818605548077598e-10	0.70913625	0.59125185	0.35648826	0.90054965	-0.0914626	-0.052044723
7.920073916727343e-10	0.6501853	0.62645507	0.40839338	0.89676553	0.16819891	-0.07178126
8.019106397889741e-10	0.6036596	0.63585556	0.4630969	0.8268982	0.41674078	-0.05191736
8.118963520900042e-10	0.57122993	0.6231292	0.518406	0.6980689	0.6300365	0.006976543
8.219597723228242e-10	0.5543269	0.5911783	0.570793	0.53201044	0.7809279	0.10013153
8.323730477055438e-10	0.5525116	0.54168326	0.6182942	0.3555014	0.8574686	0.22111522
8.439900765957221e-10	0.5661465	0.47139847	0.6600914	0.1907145	0.85579205	0.3685838
8.559040436470113e-10	0.5925467	0.3881918	0.6881137	0.08002949	0.7852316	0.51578754
8.678752707177294e-10	0.6267056	0.29926407	0.69958854	0.029129362	0.67304647	0.64656675
8.803831390087578e-10	0.6661493	0.20779301	0.6934424	0.02579936	0.53272945	0.7571989
8.940302779519346e-10	0.71022815	0.11885679	0.66707605	0.057669807	0.3654008	0.84345335
9.082434029834013e-10	0.7555479	0.048782676	0.6216594	0.10793124	0.18251361	0.8930758
9.223741250778024e-10	0.7990197	0.0112788435	0.56438553	0.15998623	-0.0013784543	0.9010497
9.35713744359952e-10	0.83669245	0.010830955	0.50604975	0.20562309	-0.16853064	0.871363
9.486650526888456e-10	0.8664885	0.04394893	0.4521624	0.24874635	-0.31521696	0.8102127
9.614456913857995e-10	0.88448334	0.1055352	0.40772033	0.29670742	-0.43503314	0.7227451
9.737106498568625e-10	0.88682735	0.18429047	0.3778635	0.35518828	-0.5177327	0.61905634
9.855549392368393e-10	0.8732011	0.2690735	0.3637088	0.4284315	-0.55966	0.5070719
9.971000084111366e-10	0.84584296	0.3501612	0.36470118	0.5167588	-0.5576057	0.39370203
1.008451853491645e-09	0.8089942	0.4199321	0.37916356	0.6159538	-0.5081936	0.28543466
1.0196995450948845e-09	0.7680056	0.4732335	0.4046195	0.7169814	-0.40861228	0.18873492
1.0309741055759098e-09	0.7281317	0.50745815	0.4382558	0.8063235	-0.25753492	0.110024594
1.0416215211696035e-09	0.6960319	0.52131903	0.4743444	0.86288667	-0.072924465	0.05938513
1.0516333601920414e-09	0.673398	0.51874846	0.50936645	0.87655455	0.12608743	0.038336627
1.0612715592321722e-09	0.6596539	0.50343543	0.5418352	0.84404415	0.32334268	0.04619019
1.0707564027601735e-09	0.6539415	0.4778172	0.5707665	0.767086	0.50136864	0.082276374
1.0802120556907062e-09	0.6553877	0.44378605	0.59514374	0.6549988	0.6416213	0.14451772
1.0898842922265602e-09	0.66319937	0.40237287	0.6142675	0.52282894	0.7310248	0.22976145
1.1003987381659005e-09	0.67744553	0.3525586	0.6274044	0.38588417	0.761971	0.33706382
1.1114414488644716e-09	0.6970278	0.2983546	0.63203025	0.2740042	0.73173994	0.45320618
1.122327811872055e-09	0.71922755	0.2467719	0.6274169	0.2060038	0.65900606	0.56009007
1.1332927806106914e-09	0.7430296	0.20041628	0.6142416	0.17690267	0.5608109	0.65289044
1.1448319729521844e-09	0.7683617	0.16146708	0.59255475	0.17836693	0.44325015	0.7303285
1.15744573058229e-09	0.7950204	0.1342399	0.56215084	0.20341936	0.3064408	0.7890209
1.1713833648719466e-09	0.8213101	0.12606531	0.524418	0.24461667	0.15145814	0.82130814
1.1862431603465095e-09	0.84275603	0.14366107	0.48489746	0.29246265	-0.011120377	0.81820226
1.2006001647644483e-09	0.8537174	0.18356352	0.45283017	0.33828637	-0.15676576	0.7801367
1.214492780734234e-09	0.8527268	0.23730631	0.4316769	0.3846786	-0.2773986	0.7141159
1.2280298987640188e-09	0.84022653	0.2958567	0.42278525	0.4379051	-0.36669838	0.6275599
1.2411845702753775e-09	0.81882805	0.35048172	0.42579392	0.5035308	-0.41868842	0.52902025
1.254099161604202e-09	0.7923533	0.3952177	0.4389418	0.5849503	-0.42856196	0.425655
1.2670580211627445e-09	0.764679	0.42659032	0.4601091	0.6819441	-0.38884392	0.32308722
1.2789209909121695e-09	0.7419857	0.44143534	0.4839695	0.7757626	-0.3011777	0.23744601
1.2897709541758235e-09	0.7256754	0.44321477	0.5073274	0.85191655	-0.1740106	0.17270704
1.2999991127397883e-09	0.71527207	0.43527538	0.52892184	0.8985268	-0.015513433	0.13002491
1.309802182142e-09	0.7101495	0.4199913	0.5478599	0.9046304	0.16043776	0.11179695
1.3193376699786297e-09	0.70957303	0.3991699	0.56357867	0.86519516	0.3347571	0.119712494
1.3288412976461797e-09	0.71290267	0.3739556	0.57579494	0.78354	0.48797798	0.15398064
1.3381281053425216e-09	0.7193772	0.34645757	0.58386177	0.6767767	0.59888285	0.21006882
1.3474115467203665e-09	0.72842944	0.31766778	0.58779126	0.5633748	0.6630483	0.28232002
1.3566381793645286e-09	0.73936564	0.28931746	0.5875231	0.4618262	0.6833552	0.36277416
1.3659648926954894e-09	0.7517594	0.26248667	0.58317596	0.38135523	0.66917753	0.44601575
1.375378881532702e-09	0.76501256	0.23876211	0.5750157	0.3261363	0.63001746	0.52671677
1.3851179215592337e-09	0.7788684	0.21917069	0.56321865	0.2945218	0.5720504	0.6029478
1.3951468251012299e-09	0.79261774	0.20546345	0.5483955	0.28403956	0.4998292	0.67121166
1.4053823598830841e-09	0.8053937	0.19908717	0.53158516	0.29027596	0.41653335	0.7284507
1.415861130792368e-09	0.8163981	0.20086126	0.5139074	0.30828428	0.32328904	0.7727171
1.4266340106016917e-09	0.8247359	0.21111512	0.4966383	0.33365998	0.22078076	0.8019373
1.4376535374501818e-09	0.82941765	0.22934298	0.48131365	0.3626684	0.11135037	0.81370413
1.4488480118119059e-09	0.82968247	0.25398523	0.4693955	0.39296055	-0.0009474112	0.80619544
1.460232718006289e-09	0.82520217	0.28281707	0.46196333	0.42448765	-0.11134747	0.7784297
1.471786715303924e-09	0.8162061	0.3129858	0.45972958	0.4593615	-0.2133462	0.73054993
1.4835160096565512e-09	0.80355185	0.3414961	0.4628818	0.5016184	-0.29960948	0.66403836
1.4953944013181904e-09	0.78870934	0.3654686	0.47104147	0.5558362	-0.36165005	0.5821283
1.5074385718522778e-09	0.7734673	0.3826754	0.48332092	0.62546647	-0.39018178	0.48936936
1.519653438484615e-09	0.75968814	0.39164653	0.49840808	0.7099936	-0.37456244	0.39198136
1.532054452241171e-09	0.74897057	0.39181405	0.5147193	0.80184776	-0.30384207	0.29798913
1.543907215558315e-09	0.7426748	0.38419235	0.5296605	0.8793699	-0.18018053	0.22194044
1.5548706290948563e-09	0.7405061	0.37142926	0.5417297	0.9231387	-0.021536574	0.17233412
1.5652141130547829e-09	0.7415121	0.35551572	0.5507782	0.924193	0.15274096	0.1508709
1.5750040834374857e-09	0.7448636	0.33810446	0.55676794	0.8826328	0.31902856	0.15725382
1.5848174970597443e-09	0.7501662	0.31948093	0.55998373	0.8041332	0.46482652	0.19000733
1.594630415153133e-09	0.7569895	0.3008311	0.5603132	0.70347804	0.5729802	0.24545282
1.6044210381634665e-09	0.7648774	0.28333792	0.5578465	0.5996732	0.6368755	0.31685868
1.6142091314195302e-09	0.77339244	0.26803842	0.5528388	0.5081439	0.6597564	0.39693055
1.6239698278241097e-09	0.7820504	0.25589395	0.5457163	0.43794006	0.6494817	0.47884604
1.6339879029639569e-09	0.7906234	0.24741623	0.536748	0.39043018	0.6130847	0.559687
1.6443409128426364e-09	0.7986328	0.24341163	0.52641875	0.3656096	0.5551591	0.6355467
1.6550078897925464e-09	0.8054498	0.24451697	0.5154773	0.36124215	0.47920623	0.7022345
1.6659838095078512e-09	0.8104377	0.25093648	0.5048038	0.3732767	0.3877041	0.75609666
1.677470256384112e-09	0.8130272	0.2626019	0.49519578	0.39740855	0.2809581	0.79429096
1.689423072355273e-09	0.812617	0.2787335	0.48774615	0.42907625	0.1621672	0.81261945
1.7017020390024355e-09	0.8089636	0.29764253	0.4834348	0.4642281	0.037696354	0.8077479
1.7143350186085282e-09	0.8022742	0.31731755	0.48282373	0.50152254	-0.08527294	0.77788657
1.7275090952651597e-09	0.79310966	0.3356865	0.48616183	0.5433098	-0.19834366	0.7219011
1.7408697727186224e-09	0.7828947	0.3499781	0.4930466	0.593102	-0.28640985	0.6434475
1.7545882347554227e-09	0.7729912	0.35861605	0.5026803	0.6568278	-0.3374281	0.5469345
1.7684529995299085e-09	0.7649956	0.36051327	0.51364905	0.73540276	-0.33673173	0.44210973
1.7824623583113679e-09	0.7599652	0.3557685	0.52447593	0.82207763	-0.27214643	0.3402446
1.7950030957602428e-09	0.7584017	0.34675395	0.5328115	0.89065987	-0.15587555	0.26358876
1.8063203464877542e-09	0.75929195	0.33578342	0.5385458	0.92788947	-0.008697281	0.21529515
1.8168263057754345e-09	0.76181656	0.32412413	0.54199004	0.9280844	0.15039241	0.19459069
1.8269390998180213e-09	0.76548684	0.3123862	0.54343706	0.8912848	0.3052649	0.19996431
1.837206259151002e-09	0.77013314	0.3007483	0.5430112	0.82082176	0.44377592	0.23076968
1.848247810876048e-09	0.77579325	0.28941697	0.54054546	0.72293663	0.55368394	0.28817037
1.8591295225643934e-09	0.78166103	0.28027064	0.53634834	0.6241433	0.6149374	0.36185336
1.8698411211809482e-09	0.78733563	0.27388865	0.5308898	0.54095304	0.6324557	0.44266647
1.8806895659885235e-09	0.7925934	0.27052608	0.5245029	0.4798364	0.61494726	0.5253581
1.891910017011013e-09	0.79712015	0.27052748	0.5175643	0.44324395	0.56845564	0.6054462
1.9035733268350614e-09	0.8004675	0.27415153	0.5106425	0.43092245	0.49730867	0.6777066
1.915862144783843e-09	0.80218416	0.28142846	0.5043592	0.43987417	0.40353823	0.73755676
1.9288866802415926e-09	0.8018089	0.29198608	0.49948955	0.4654683	0.28893748	0.77932644
1.942697357590152e-09	0.7990418	0.30482784	0.49685	0.5018312	0.15732172	0.7966208
1.9572762844160067e-09	0.79396874	0.318251	0.49708918	0.54356605	0.017120726	0.78340226
1.9725620632167372e-09	0.78723365	0.33006892	0.50042444	0.58879	-0.11721189	0.735982
1.988491669129582e-09	0.78001326	0.3381092	0.5064656	0.64143765	-0.22585571	0.6551669
2.0047217104435604e-09	0.7738657	0.34077597	0.514065	0.7079518	-0.28484145	0.5499457
2.020597130909518e-09	0.77008843	0.3379912	0.5215286	0.78756756	-0.27508932	0.43866193
2.034704319276593e-09	0.76899797	0.33176562	0.52716136	0.86150634	-0.20034055	0.34664246
2.047307301396495e-09	0.7697978	0.3241202	0.5308094	0.91401875	-0.080322966	0.28134227
2.0585638898437457e-09	0.7717208	0.31640142	0.5326972	0.9346452	0.06078019	0.24457768
2.0690963577003764e-09	0.7743089	0.3090341	0.53320575	0.92162925	0.20675728	0.2334786
2.0795135887552024e-09	0.777376	0.3021293	0.53253186	0.87614894	0.3459487	0.2465119
2.0903291769430182e-09	0.78084886	0.29585022	0.5307016	0.80213803	0.466407	0.28384757
2.101797457618173e-09	0.78459036	0.2906636	0.5277131	0.71040934	0.55366194	0.34459773
2.1131939791757594e-09	0.7881069	0.28740185	0.52397215	0.62421393	0.5955713	0.4186145
2.124859258095977e-09	0.7912308	0.28626424	0.51971936	0.554987	0.59709156	0.49969426
2.1370165087261283e-09	0.7937069	0.2874894	0.51527	0.50980383	0.5630693	0.58159494
2.1499037276172372e-09	0.7952185	0.29123378	0.5110287	0.4912925	0.4969917	0.6581222
2.1638291392652922e-09	0.7953969	0.29748222	0.5075144	0.49849594	0.40002584	0.72245204
2.1790012741109976e-09	0.79388505	0.30577517	0.50540966	0.527032	0.27355972	0.76527536
2.1950106685614545e-09	0.7906855	0.3146657	0.5053687	0.5679156	0.12830968	0.7756305
2.2116661083901005e-09	0.7863045	0.32239243	0.5075454	0.613663	-0.0191911	0.74729776
2.2290245855695203e-09	0.7816068	0.3273636	0.51160896	0.6647099	-0.14711274	0.6790645
2.2467894069214942e-09	0.7777498	0.32842878	0.5166701	0.7277047	-0.22610815	0.5788179
2.2640714792746937e-09	0.7757063	0.32568568	0.5213941	0.803514	-0.23055105	0.4680528
2.2790035968443283e-09	0.7755436	0.32098126	0.52459425	0.87227416	-0.16494644	0.377668
2.2920384678576972e-09	0.7765342	0.31581405	0.52636594	0.91887456	-0.05482366	0.3149733
2.3036844923045992e-09	0.77812475	0.31091243	0.5270176	0.93529975	0.075873435	0.27978426
2.3148067064045137e-09	0.7800639	0.30640274	0.5268084	0.92001224	0.21344231	0.2692664
2.3260452374305886e-09	0.78224367	0.3023677	0.52583337	0.8733407	0.34585562	0.28319013
2.337937255086219e-09	0.7845956	0.29899254	0.5240986	0.7993852	0.45943415	0.32273224
2.3496775344835816e-09	0.78678834	0.2968199	0.5218653	0.7178838	0.5330075	0.38113087
2.3615600130909338e-09	0.7887149	0.29596138	0.5193109	0.64319575	0.5661024	0.45192248
2.3739543810399887e-09	0.79025275	0.2965492	0.51660544	0.58532965	0.5609579	0.52951384
2.3872132911763836e-09	0.7912149	0.29872632	0.5139824	0.5509976	0.5190933	0.60788536
2.401717319522536e-09	0.7913489	0.3025494	0.51178193	0.5435006	0.44034755	0.67952836
2.4173214556575913e-09	0.7904248	0.30762368	0.5105028	0.5610838	0.3279587	0.73248184
2.4336910222832965e-09	0.78846407	0.31302652	0.510524	0.59536976	0.19178191	0.7552761
2.4509841894273544e-09	0.78573614	0.3177193	0.5119519	0.6385021	0.044995993	0.73999536
2.4690597111624236e-09	0.7828309	0.32056898	0.51456153	0.68815196	-0.08780679	0.6831118
2.48765677982737e-09	0.78052336	0.3208383	0.517745	0.74914956	-0.17450921	0.5910051
2.505697884736908e-09	0.77946854	0.3186911	0.52058476	0.82070845	-0.18560651	0.4861114
2.521209341901371e-09	0.7796284	0.3154756	0.5223657	0.8829154	-0.12568791	0.40040213
2.534846090470947e-09	0.7804892	0.31212536	0.5232185	0.9223357	-0.021359483	0.3411947
2.5474450077747057e-09	0.78171504	0.3090018	0.5233559	0.9320009	0.1061854	0.30847484
2.5597709383889613e-09	0.78313625	0.30623338	0.5229103	0.90930355	0.24111274	0.30182645
2.5721395708161672e-09	0.784621	0.30398658	0.52196723	0.8570494	0.36525148	0.32138473
2.5841613919815956e-09	0.785993	0.30248883	0.5206907	0.78898245	0.4584921	0.36260942
2.596199878055624e-09	0.78719556	0.3017807	0.51919764	0.71831673	0.51619977	0.4198838
2.6087034078068245e-09	0.78817284	0.3019307	0.51758415	0.6557182	0.5373504	0.4884436
2.6220788723199383e-09	0.78882533	0.30304018	0.5159811	0.610113	0.5209054	0.5629691
2.6366618092349294e-09	0.78900385	0.3051651	0.5145954	0.58820117	0.4654252	0.63598514
2.6523065730240844e-09	0.7885628	0.30810174	0.5137298	0.59211224	0.37298772	0.69559413
2.6689064282212797e-09	0.7874728	0.3113632	0.51363015	0.6169044	0.2505348	0.7300143
2.6863403404346846e-09	0.7858821	0.31425834	0.51439166	0.65471673	0.112030774	0.72946763
2.7046498761147497e-09	0.7841159	0.31609598	0.5159042	0.70127094	-0.020943314	0.68867
2.723540253117994e-09	0.78266263	0.31636524	0.5178082	0.7577157	-0.116613515	0.6112468
2.7423137678406655e-09	0.78196424	0.3150832	0.51956785	0.8235411	-0.14373994	0.5146334
2.7582333429756262e-09	0.7820642	0.31312704	0.52065057	0.8794748	-0.10102646	0.43357775
2.772744004089482e-09	0.7826457	0.31101698	0.5211671	0.91662395	-0.010315536	0.37367958
2.7863096537340566e-09	0.78348076	0.30905905	0.52120775	0.92629635	0.107512034	0.33911717
2.7993234203647996e-09	0.78440905	0.30741197	0.52087003	0.90610933	0.2321235	0.33079627
2.811828762697593e-09	0.78530705	0.3061893	0.5202575	0.8616165	0.34336203	0.34687275
2.8240065091501646e-09	0.7861085	0.30543137	0.5194672	0.80355036	0.4288873	0.38271457
2.8363543954594524e-09	0.7867899	0.3051533	0.51856136	0.74187636	0.48411646	0.4341315
2.8494480878691983e-09	0.787319	0.30541018	0.51759374	0.6854993	0.5057085	0.49771994
2.8635813274170567e-09	0.7876217	0.30626994	0.51666844	0.6440998	0.489601	0.5675776
2.8789257638903353e-09	0.787604	0.30772537	0.5159403	0.62507474	0.4336784	0.63469285
2.8952641124397007e-09	0.7871986	0.30957723	0.5155934	0.63032407	0.34141666	0.68655133
2.9125840398194423e-09	0.78641874	0.3114742	0.5157483	0.6553093	0.22163336	0.7118081
2.9307303475003123e-09	0.78539944	0.3129574	0.5164129	0.6934005	0.091756135	0.70163405
2.9495872401332125e-09	0.7843931	0.31362706	0.51744616	0.7410073	-0.022616467	0.6536652
2.9688197022116e-09	0.7837108	0.3133041	0.51857156	0.7974501	-0.090376034	0.57586825
2.986101079017903e-09	0.78355193	0.31229654	0.51940566	0.8517459	-0.090886	0.49573597
3.0018269451591645e-09	0.78379375	0.31103227	0.51988125	0.8945844	-0.03592475	0.42856634
3.0164274800174035e-09	0.78427345	0.3097883	0.52002877	0.9166543	0.056575872	0.38231978
3.030066778352156e-09	0.7848443	0.30873162	0.51991343	0.91305804	0.16520463	0.36042845
3.04297983818868e-09	0.78540814	0.30793178	0.51961035	0.88598335	0.27098897	0.3618819
3.055464929839041e-09	0.78591394	0.3074075	0.5191837	0.8423094	0.3607742	0.38339877
3.0679899631453953e-09	0.78634256	0.3071634	0.51867723	0.7899605	0.42736924	0.4215302
3.0811235634446182e-09	0.7866797	0.30722305	0.51812476	0.7366805	0.46573272	0.4734694
3.0953625556525763e-09	0.786893	0.30763206	0.51757574	0.69118106	0.47010428	0.5353809
3.110880770306823e-09	0.78692895	0.30840623	0.51712084	0.66286933	0.43554714	0.5994289
3.1274765655446777e-09	0.78674096	0.30945182	0.516875	0.65735555	0.36294195	0.65358996
3.145139453944084e-09	0.78632224	0.31056905	0.51692295	0.6733762	0.25943065	0.6860287
3.1635782414523107e-09	0.7857415	0.311468	0.51728034	0.7052378	0.14149189	0.68682426
3.182728153090654e-09	0.7851425	0.3118956	0.5178691	0.74788237	0.03224439	0.6523477
3.2022584702957515e-09	0.78472006	0.3117286	0.51852477	0.79824334	-0.0393579	0.58822596
3.220050304239831e-09	0.784615	0.31113443	0.5190203	0.8465426	-0.05145782	0.51728344
3.2364627648622976e-09	0.78477216	0.31037337	0.5193017	0.88526016	-0.011091675	0.45471233
3.2518039878316574e-09	0.7850891	0.30963215	0.519379	0.906142	0.06687161	0.4098916
3.2659999014706135e-09	0.78545713	0.30903068	0.51929545	0.9046048	0.16146724	0.3875275
3.27935847965535e-09	0.7858068	0.30860305	0.51910454	0.882711	0.25515598	0.38660732
3.292309675232816e-09	0.78610706	0.30834946	0.5188472	0.8459326	0.33632842	0.4042599
3.3053490740606587e-09	0.7863467	0.30826783	0.5185519	0.8007792	0.39762163	0.43757853
3.319008597695034e-09	0.7865174	0.30836788	0.51824343	0.75422156	0.4331951	0.483815
3.333843678758074e-09	0.78660387	0.3086688	0.51795477	0.714086	0.4369386	0.5393156
3.350096747841898e-09	0.7865794	0.3091679	0.51774216	0.689216	0.40337902	0.596535
3.3676096564097403e-09	0.7864225	0.3097906	0.51767284	0.6854465	0.33305338	0.64354014
3.386152971345182e-09	0.7861415	0.31038636	0.5177871	0.70201397	0.23534591	0.66805476
3.405391811019657e-09	0.7857952	0.31077418	0.518068	0.73354423	0.12908477	0.6616701
3.425161443272385e-09	0.7854878	0.31082928	0.5184396	0.7748371	0.038805358	0.6235009
3.4446508743176368e-09	0.78533673	0.31055376	0.5187815	0.8201888	-0.0089194365	0.5637412
3.4621716599941417e-09	0.78537726	0.3101189	0.5189932	0.8596152	-0.0040712957	0.50350666
3.4788244342456404e-09	0.78555703	0.3096562	0.5190753	0.8877318	0.044376247	0.45264018
3.4943815600339736e-09	0.7858	0.3092726	0.51904446	0.89746493	0.1206258	0.4200979
3.50878320188745e-09	0.78603673	0.30901277	0.51893926	0.88766646	0.20495531	0.4082926
3.5224857339682324e-09	0.78623426	0.30887327	0.51879346	0.8620633	0.28363454	0.41511172
3.5360223639947833e-09	0.7863821	0.3088429	0.5186297	0.82598907	0.34793702	0.43779308
3.5499225477950257e-09	0.78647727	0.30891612	0.5184656	0.7854416	0.39142653	0.47366986
3.564746965001991e-09	0.7865171	0.30909342	0.5183203	0.7471136	0.40817213	0.51965797
3.5809444106023164e-09	0.78649485	0.30936944	0.5182214	0.71876895	0.3922383	0.5704061
3.5985607475138564e-09	0.7864035	0.30970603	0.51820326	0.707587	0.34114942	0.6162245
3.617404152377079e-09	0.7862476	0.31001896	0.51828855	0.71597344	0.26059663	0.64516664
3.637208078111172e-09	0.786057	0.31020093	0.51846695	0.74086416	0.16588466	0.6474231
3.6573841556322245e-09	0.7858943	0.31017646	0.5186854	0.7763335	0.0813391	0.62030417
3.677162198893007e-09	0.7858285	0.30996287	0.51887083	0.8158675	0.03134184	0.5719223
3.6952277403019235e-09	0.7858802	0.30967215	0.5189717	0.85098976	0.02695781	0.5194615
3.7125758475297967e-09	0.7860204	0.30938962	0.5189898	0.8768235	0.06293907	0.47290343
3.729018333107266e-09	0.78619695	0.30918294	0.518941	0.8868647	0.12723912	0.44153282
3.744231957096252e-09	0.7863566	0.30907685	0.5188555	0.8793929	0.20113508	0.4291946
3.758639147299581e-09	0.7864756	0.30905807	0.51875836	0.85772943	0.2708902	0.43421844
3.772843963686265e-09	0.7865486	0.30910927	0.51866525	0.82665765	0.32803917	0.45396882
3.7874006895469515e-09	0.7865774	0.30921772	0.5185881	0.7916204	0.36618257	0.48580045
3.80287654028515e-09	0.78656507	0.3093731	0.5185397	0.7587485	0.37954545	0.52650464
3.819693814025431e-09	0.78651476	0.30955827	0.5185354	0.73507243	0.36281604	0.57061416
3.837866599213253e-09	0.7864325	0.30973482	0.51858807	0.7268192	0.31467164	0.6088984
3.857228646656434e-09	0.78633094	0.30984572	0.5186964	0.7359029	0.24172628	0.63072395
3.877434385125363e-09	0.7862354	0.30983683	0.5188361	0.7594429	0.15985149	0.628099
3.897793988640539e-09	0.78618443	0.30969676	0.5189624	0.7916429	0.09188129	0.60059863
3.917088924538759e-09	0.78620684	0.30948362	0.5190344	0.82501197	0.05773963	0.5583944
3.935343443251999e-09	0.7862975	0.3092723	0.51904374	0.8537878	0.0617539	0.51366824
3.95312880793847e-09	0.7864306	0.30911624	0.51900095	0.8726646	0.10002819	0.47565848
3.969993524999191e-09	0.786563	0.309049	0.51892865	0.87641925	0.16002148	0.45262355
3.985651648072137e-09	0.7866605	0.30906403	0.51885337	0.8652165	0.22460926	0.44685087
4.000649723185462e-09	0.7867144	0.30913737	0.5187906	0.84289134	0.28254703	0.45623934
4.015626355829735e-09	0.7867266	0.30924845	0.51874965	0.814099	0.32663828	0.47820663
4.031169766025581e-09	0.7867032	0.30938008	0.51873815	0.78405327	0.35107982	0.50995404
4.047829923477094e-09	0.7866525	0.3095135	0.5187634	0.75868124	0.3505621	0.5475437
4.065862370732933e-09	0.78658533	0.30962026	0.51882976	0.74428666	0.32161325	0.58416486
4.085041838668246e-09	0.7865168	0.30966282	0.5189301	0.74489343	0.26720023	0.6102489
4.105177456258275e-09	0.78646404	0.3096112	0.51904273	0.7599664	0.19820556	0.6174818
4.125682644694318e-09	0.7864481	0.30946475	0.5191343	0.785245	0.13317364	0.60247856
4.145557425727431e-09	0.786484	0.30927026	0.5191761	0.8142208	0.09158264	0.5706215
4.1644329199813045e-09	0.78656775	0.30909115	0.51916385	0.8408996	0.0823137	0.53236026
4.182930004188226e-09	0.78668183	0.30897158	0.51910913	0.8605876	0.104969084	0.49647173
4.200917889960812e-09	0.78679454	0.30893928	0.51903343	0.86802584	0.15229873	0.4713872
4.2177211559745805e-09	0.7868733	0.30898744	0.5189637	0.861528	0.2087983	0.4618997
4.233604532091127e-09	0.7869088	0.30908695	0.51891565	0.8441381	0.26163554	0.46698856
4.249270316737636e-09	0.78690434	0.3092121	0.51889634	0.8201047	0.30320486	0.48413432
4.2653727035954e-09	0.78686804	0.30934143	0.51891017	0.79408777	0.32780418	0.51064354
4.2824842172721635e-09	0.7868104	0.3094526	0.5189606	0.77138233	0.33038756	0.54287124
4.300928390574539e-09	0.7867462	0.30951744	0.5190455	0.7576731	0.30758494	0.57481873
4.320474698326131e-09	0.78669333	0.3095069	0.51915073	0.75698465	0.26182574	0.59791195
4.3407730449952275e-09	0.7866681	0.30940822	0.51925075	0.76916355	0.20334992	0.60473275
4.361312130878545e-09	0.7866828	0.3092394	0.51931643	0.79049045	0.14824738	0.5926412
4.381265997719656e-09	0.7867403	0.30905184	0.51933014	0.8152129	0.11276263	0.5661184