# t (s)	mx ()	my ()	mz ()	m.region1x ()	m.region1y ()	m.region1z ()
0	0	1	0	0	1	0
1.023e-12	-0.024330977	0.9995737	0.015727457	-0.02963268	0.9994118	0.017259544
2.047e-12	-0.04806662	0.9983196	0.031546995	-0.05857571	0.99768037	0.034682028
4.095e-12	-0.093596004	0.99349034	0.063356355	-0.114142805	0.9910057	0.0698502
8.191e-12	-0.176455	0.975657	0.12726648	-0.21515398	0.9663872	0.1407104
1.5449934287170933e-11	-0.2952258	0.9236411	0.23942655	-0.35864595	0.8953684	0.2638826
2.2644648275622047e-11	-0.37815738	0.8558046	0.34640944	-0.45747614	0.8049696	0.3775463
2.9964405086008924e-11	-0.43040755	0.7786323	0.44867438	-0.5204657	0.70524055	0.48092827
3.749583820409145e-11	-0.45552313	0.69633913	0.5455019	-0.554996	0.6021429	0.5732252
4.528923027305457e-11	-0.45693624	0.6113446	0.63585967	-0.5676947	0.49849746	0.6542208
5.335228910209239e-11	-0.43830538	0.52477056	0.71833694	-0.56416833	0.39525208	0.7237911
6.165129883794623e-11	-0.4037733	0.43675897	0.79127574	-0.54915375	0.29246965	0.78159237
7.0165190287256e-11	-0.3576876	0.3463465	0.8532992	-0.5267028	0.1894505	0.8271988
7.891194244637167e-11	-0.30411595	0.2517335	0.9032613	-0.5002681	0.08490563	0.859968
8.793659236510031e-11	-0.24672097	0.15089914	0.93984747	-0.47276354	-0.022719184	0.87880915
9.728869126599627e-11	-0.18881153	0.042277098	0.9613031	-0.44639596	-0.13487518	0.8820732
1.0699981968082248e-10	-0.13320616	-0.07454109	0.965443	-0.42215934	-0.2523805	0.8676222
1.1673345460233163e-10	-0.08327059	-0.19406667	0.9508164	-0.39986935	-0.3707044	0.83465844
1.2562983742111148e-10	-0.041992247	-0.30312902	0.92107856	-0.37854853	-0.47803637	0.7884558
1.3415989010568918e-10	-0.0042364323	-0.40502363	0.87822914	-0.35382247	-0.5785083	0.7302783
1.4263276091586905e-10	0.034613296	-0.5009756	0.8223657	-0.32125	-0.6739692	0.659995
1.5116523155443985e-10	0.079033494	-0.58931595	0.7535739	-0.276161	-0.7634139	0.5779415
1.595393595339595e-10	0.13201444	-0.6645393	0.6749443	-0.21572195	-0.84187585	0.48789635
1.6769896234194e-10	0.19639038	-0.7229781	0.5890995	-0.13766088	-0.9059038	0.39260626
1.7573565731870897e-10	0.27490973	-0.7615371	0.49730766	-0.039366122	-0.95230055	0.2930041
1.8358356277937627e-10	0.36721304	-0.7755953	0.40276372	0.078643985	-0.9756138	0.19186752
1.913601825359718e-10	0.47279072	-0.7605138	0.30681258	0.21649332	-0.96972847	0.08977965
1.99116574183132e-10	0.5880044	-0.710575	0.21201399	0.3710909	-0.92618364	-0.011459996
2.067206544396549e-10	0.70324504	-0.62278706	0.12368222	0.53156906	-0.83774596	-0.10696287
2.141102582973617e-10	0.80745083	-0.4982977	0.046281934	0.68389416	-0.7008362	-0.19212325
2.214652519512502e-10	0.89185166	-0.3376316	-0.018240318	0.81527025	-0.5110268	-0.26409423
2.2887693380242423e-10	0.94546425	-0.1452994	-0.06644871	0.9067273	-0.2692174	-0.31699333
2.3624114995335436e-10	0.9579997	0.06419028	-0.09411987	0.9365403	0.007363361	-0.342525
2.435181124942914e-10	0.9261687	0.273813	-0.09943072	0.8926449	0.2914699	-0.33458224
2.5076420174284635e-10	0.8529405	0.46894416	-0.08239464	0.77608776	0.5535231	-0.29016188
2.580153826947097e-10	0.7464967	0.6366389	-0.044245638	0.6022118	0.7649954	-0.210414
2.652614639804863e-10	0.6195863	0.76736605	0.012208791	0.39884624	0.9067016	-0.10210115
2.72600807417097e-10	0.48447862	0.8586081	0.0841447	0.19369377	0.9762883	0.026009345
2.801273189506167e-10	0.35281935	0.91099066	0.16866341	0.009667888	0.9819403	0.16435952
2.8792601606812704e-10	0.23498528	0.9275106	0.26271275	-0.13841625	0.9380029	0.30414858
2.960407857461623e-10	0.13977893	0.91285837	0.36265218	-0.24400125	0.8605311	0.43798122
3.0427323250202727e-10	0.074493475	0.87403446	0.46195337	-0.30679715	0.7661395	0.557892
3.1275041511664246e-10	0.039054442	0.816736	0.5585386	-0.33504477	0.6631467	0.6639578
3.2162637153479446e-10	0.032344323	0.7437899	0.65068567	-0.3362224	0.5542774	0.7570693
3.3104187057173016e-10	0.052660238	0.65567005	0.73600847	-0.31658027	0.43885967	0.83737516
3.408283336063609e-10	0.09559049	0.5541377	0.80908585	-0.28301147	0.31762153	0.9020111
3.5090945533359846e-10	0.15425986	0.4396558	0.865921	-0.2425489	0.18907267	0.9489703
3.609672994677345e-10	0.21922274	0.31632972	0.9024774	-0.20248246	0.055422027	0.97540694
3.709329776248159e-10	0.2833766	0.18727997	0.9177955	-0.16727781	-0.08244386	0.98022586
3.8098220688660956e-10	0.34350455	0.054088518	0.9117103	-0.1382409	-0.22516434	0.9621053
3.912431619442176e-10	0.3985184	-0.07940695	0.8835256	-0.11440595	-0.37106767	0.9187972
4.012795984361595e-10	0.44738388	-0.2009048	0.8357405	-0.09276285	-0.5091968	0.85227656
4.1109509850091494e-10	0.4939192	-0.3043435	0.7717687	-0.06662652	-0.63488656	0.76550263
4.2101271771670983e-10	0.54427093	-0.38675982	0.6927471	-0.026838945	-0.7472097	0.65868044
4.306329447667766e-10	0.60032904	-0.43932527	0.60577774	0.03298245	-0.83651876	0.54014426
4.3987334795587787e-10	0.662853	-0.4589967	0.5164639	0.11669278	-0.89769816	0.41615835
4.48978365312684e-10	0.73195595	-0.44417384	0.42700073	0.22798403	-0.92632085	0.28806075
4.579264141089468e-10	0.80313647	-0.3931315	0.34201294	0.36470923	-0.9136923	0.16038443
4.668830175016743e-10	0.8705148	-0.30460033	0.2645058	0.52241534	-0.8485244	0.03541057
4.756610063310435e-10	0.92368394	-0.18364094	0.20047984	0.6836044	-0.7219121	-0.07863003
4.844719172180193e-10	0.9547009	-0.034671534	0.1523743	0.829695	-0.5245618	-0.17706442
4.932763063379825e-10	0.95576274	0.13084207	0.12391098	0.9301955	-0.25947803	-0.24939854
5.02022055088306e-10	0.92402726	0.29778275	0.11705182	0.9543877	0.051690962	-0.2839869
5.108542842625603e-10	0.86139274	0.45416498	0.13199607	0.88257533	0.37516662	-0.27074346
5.198106519130241e-10	0.77479196	0.58742434	0.16783032	0.7164157	0.6608991	-0.20324676
5.287652663869526e-10	0.67696315	0.6870438	0.2209893	0.49141565	0.86055595	-0.08720771
5.37815509072717e-10	0.5795317	0.75095165	0.28764996	0.25526273	0.95874673	0.063172236
5.469873965247658e-10	0.4933502	0.78013927	0.36325675	0.051006418	0.96582025	0.22867061
5.563122284424704e-10	0.4262991	0.77828515	0.44323963	-0.0980725	0.9079024	0.39216986
5.659058213108466e-10	0.3825451	0.74965215	0.52395403	-0.18878229	0.8105783	0.54358053
5.758565032327211e-10	0.3638993	0.697664	0.60161376	-0.22801937	0.69136935	0.67738104
5.860260983196127e-10	0.36942986	0.62637657	0.6708824	-0.2272621	0.5617145	0.7888865
5.964079002517598e-10	0.39496353	0.5388336	0.7280113	-0.19996142	0.42459956	0.87738055
6.072252864379448e-10	0.4358483	0.43552145	0.77045006	-0.15698056	0.27593073	0.94319385
6.186733262315551e-10	0.4873207	0.31729996	0.7944802	-0.10729966	0.110555135	0.98318815
6.308020031777926e-10	0.5440547	0.18871017	0.7955566	-0.05927402	-0.073259234	0.9904852
6.430101900103645e-10	0.59920675	0.064627096	0.77186626	-0.019804737	-0.26258823	0.9590006
6.548005239981842e-10	0.6499212	-0.04056532	0.72759825	0.01279859	-0.44116345	0.8905551
6.666328932814309e-10	0.70000273	-0.12222159	0.6658153	0.04978888	-0.60544455	0.7859885
6.782914606619212e-10	0.7506505	-0.17098862	0.592941	0.104406804	-0.74119467	0.6527142
6.892787697222374e-10	0.7999794	-0.18229832	0.5187719	0.18536691	-0.83407706	0.50648713
7.000065969567496e-10	0.847437	-0.15766281	0.44673103	0.3003178	-0.8794284	0.35207477
7.107716784338922e-10	0.88939667	-0.097307645	0.38042456	0.45187712	-0.8643972	0.19387871
7.212103287517696e-10	0.9181122	-0.00815995	0.32698944	0.62301415	-0.77467424	0.046286833
7.313786225717882e-10	0.92852634	0.10059603	0.28938153	0.7892874	-0.601563	-0.081641905
7.415058299785814e-10	0.91757786	0.22032987	0.26898187	0.91825956	-0.3409983	-0.18035787
7.51647566082434e-10	0.8847612	0.33987978	0.26693428	0.9677828	-0.009722718	-0.23433296
7.615627705986677e-10	0.8349861	0.4454569	0.282305	0.90813047	0.336573	-0.22857772
7.712981835750563e-10	0.7754561	0.53002465	0.31221038	0.7468748	0.6362619	-0.15972807
7.812935560204844e-10	0.71143365	0.59212756	0.35503328	0.5160908	0.8477497	-0.031290364
7.914238631656566e-10	0.6516421	0.62790185	0.406945	0.2771836	0.94289017	0.1367128
8.016982512935537e-10	0.6027754	0.637559	0.46392056	0.081428535	0.936004	0.31850165
8.121252152071104e-10	0.5692558	0.6231713	0.521809	-0.04763341	0.8602012	0.49239805
8.227378169546534e-10	0.5528811	0.5876368	0.57674617	-0.11140853	0.74566394	0.64590025
8.33483814535705e-10	0.5531526	0.53450376	0.62479115	-0.12344092	0.61163116	0.7728302
8.445272311522336e-10	0.56784993	0.4663197	0.66333073	-0.10018095	0.46362832	0.873141
8.559350391038793e-10	0.5939964	0.38616854	0.68940747	-0.05593441	0.3016992	0.9453023
8.675920981096111e-10	0.6276467	0.2994395	0.70031345	-0.0037666075	0.12662794	0.98569506
8.798180035856738e-10	0.6663948	0.20979401	0.6944238	0.04807803	-0.06560269	0.99013495
8.924766413626948e-10	0.70740426	0.12616162	0.6708348	0.094213545	-0.2673237	0.9515628
9.053073544535329e-10	0.74850833	0.059135713	0.63160723	0.13735463	-0.46242872	0.8670385
9.184424195493007e-10	0.7894263	0.016706172	0.58001333	0.1914482	-0.63570505	0.73673505
9.31439326287976e-10	0.82748634	0.0063277883	0.5233094	0.27354607	-0.7619071	0.57309693
9.444417756693864e-10	0.86018777	0.029610608	0.46736753	0.3994545	-0.8216095	0.38823
9.56933424136028e-10	0.8821772	0.08176049	0.42033455	0.5632732	-0.7924506	0.20599695
9.68659222375433e-10	0.89022636	0.1518606	0.3867458	0.73797613	-0.66572255	0.046416372
9.797019590983604e-10	0.8841032	0.22932929	0.36734104	0.8868347	-0.44602248	-0.07749493
9.9029029022239e-10	0.86535954	0.30637413	0.3612207	0.97199416	-0.15122202	-0.15504985
1.0005661046988857e-09	0.8367543	0.37674543	0.36704922	0.96301013	0.18002248	-0.17548762
1.010492263169503e-09	0.80242586	0.43514308	0.38279146	0.8554507	0.48855138	-0.13417621
1.020548733507564e-09	0.76487815	0.4808009	0.40719962	0.6691657	0.7329362	-0.033018485
1.0308620285107143e-09	0.7277818	0.5112358	0.43873623	0.448635	0.8772157	0.116497345
1.0409882917724226e-09	0.6964481	0.52441305	0.47348565	0.25505337	0.915452	0.28432956
1.0512660151075107e-09	0.6724744	0.5216589	0.50986207	0.113048516	0.8755057	0.45313215
1.0617038777963982e-09	0.65760076	0.50401455	0.5452949	0.03134555	0.7847739	0.6074179
1.072408513606904e-09	0.652387	0.4728828	0.5775773	0.0028483663	0.6629987	0.739877
1.0832624415198877e-09	0.6564778	0.43083316	0.60400116	0.014523119	0.52293384	0.84507495
1.0945493033431368e-09	0.66886854	0.37944385	0.62304837	0.052617807	0.36509284	0.92308855
1.106281751591749e-09	0.6881215	0.32190603	0.63261646	0.10478484	0.1899745	0.9699695
1.1187195444883309e-09	0.71296155	0.26136172	0.63102114	0.16162013	-0.0049852817	0.98026466
1.1315860907570832e-09	0.7409983	0.20493242	0.6173748	0.21537395	-0.20931423	0.9463346
1.1447322222255373e-09	0.77009255	0.1596083	0.59278876	0.2670776	-0.40721896	0.86442184
1.1580612562299116e-09	0.79833007	0.13144794	0.560031	0.32790485	-0.5776761	0.73652506
1.1714675450544057e-09	0.8235792	0.12456734	0.5232006	0.4147531	-0.6962261	0.5724166
1.185042212495417e-09	0.84353393	0.14036897	0.48655698	0.5420294	-0.7373131	0.38629934
1.197813278490767e-09	0.85469425	0.1741765	0.45675343	0.69480276	-0.679642	0.21164596
1.2095733674181519e-09	0.8566704	0.21774463	0.43617257	0.8418433	-0.5274031	0.06936338
1.221005335498851e-09	0.85019106	0.26677188	0.4242379	0.95373726	-0.28618926	-0.033720586
1.2318359046182626e-09	0.8367477	0.31456664	0.42103004	0.99260426	0.0070638843	-0.08271221
1.2423217615244898e-09	0.8182125	0.3579092	0.42539752	0.9432977	0.30878565	-0.073023036
1.252862458736962e-09	0.7960761	0.39508086	0.4365218	0.8108757	0.5752268	-0.0036544113
1.263200208188753e-09	0.7732522	0.4228095	0.45283258	0.6329655	0.7573163	0.11325711
1.2736089883608295e-09	0.7514821	0.44050634	0.47314167	0.45168284	0.8454148	0.26081645
1.2839578369583726e-09	0.73302585	0.44743302	0.49550128	0.30569577	0.84923095	0.41582024
1.2944876186077792e-09	0.71898085	0.44391274	0.5186782	0.20901595	0.79151565	0.56442624
1.3051120624144262e-09	0.7104608	0.43061456	0.54075396	0.1634474	0.6936826	0.6942177
1.3160303400236393e-09	0.7077589	0.40841797	0.56044006	0.15972103	0.56824535	0.8013129
1.3272307185237947e-09	0.7108706	0.378865	0.57607186	0.18638127	0.4226904	0.8816121
1.3389710864735517e-09	0.719482	0.3432922	0.5863995	0.232427	0.25694814	0.9328329
1.3511483776812864e-09	0.73275024	0.30473417	0.5899366	0.28708914	0.07539777	0.9493108
1.364049842160412e-09	0.7498963	0.26591578	0.58573866	0.34424615	-0.119753055	0.92474484
1.3773875442865328e-09	0.769158	0.23209837	0.57367885	0.40144357	-0.31072462	0.8538408
1.3911560198799658e-09	0.788882	0.20778064	0.55482197	0.46643522	-0.4761115	0.73620063
1.4051327942376937e-09	0.8069479	0.1969496	0.5316853	0.5523388	-0.5864778	0.5814584
1.41929451524724e-09	0.821399	0.20137483	0.50736004	0.66952664	-0.6129926	0.40671912
1.4328261329682537e-09	0.82994884	0.21920104	0.4863262	0.80281115	-0.53625035	0.24501507
1.4450708818683597e-09	0.8322192	0.24454172	0.4713183	0.91684794	-0.37143645	0.123532444
1.4568600836033927e-09	0.82909834	0.2742971	0.4618543	0.98673725	-0.1356258	0.046864927
1.4682983884979954e-09	0.82132065	0.30509958	0.4580418	0.987103	0.13578357	0.02424325
1.4792647860689403e-09	0.81022143	0.33358172	0.4594751	0.9141464	0.3912407	0.056988347
1.4901134496456675e-09	0.7968747	0.35833132	0.46546105	0.78571016	0.5952449	0.13848846
1.5008082775056357e-09	0.78276086	0.37755644	0.47512478	0.63660693	0.72165316	0.2539746
1.5115319041945727e-09	0.76904947	0.3904498	0.4876132	0.49921587	0.7695239	0.38694528
1.522364622195878e-09	0.7569275	0.39638364	0.5019318	0.39612785	0.7506519	0.5212069
1.5332976687237302e-09	0.7474731	0.39515883	0.5168787	0.33629516	0.68242145	0.6434955
1.5445733957232616e-09	0.7413206	0.38690424	0.5315301	0.31669936	0.5780329	0.7475853
1.55615864436118e-09	0.739056	0.3721909	0.5445391	0.3299128	0.44755968	0.82708174
1.5682042682961688e-09	0.7408645	0.3519118	0.554769	0.36604524	0.29562166	0.87821037
1.5806812645284534e-09	0.74658644	0.32777587	0.56099474	0.4151825	0.12807338	0.8960368
1.5939243563673803e-09	0.755916	0.30143365	0.5623061	0.4712775	-0.05133525	0.8750661
1.6075865943061283e-09	0.76774937	0.27653137	0.5580915	0.5304602	-0.22340949	0.81131095
1.6220682658881498e-09	0.7812053	0.25582373	0.54834175	0.5992169	-0.36995673	0.70247394
1.6368533420341467e-09	0.7942961	0.24337097	0.53443444	0.6846485	-0.4558889	0.5603785
1.651925092516252e-09	0.8053618	0.2412459	0.51841635	0.7905256	-0.45204234	0.40448174
1.6656853471745558e-09	0.81223845	0.24859919	0.5042888	0.8911217	-0.35369924	0.27519253
1.6785977347131304e-09	0.81513035	0.26242796	0.4931078	0.96379375	-0.18106167	0.18523346
1.6909173845463946e-09	0.81435883	0.28013408	0.48542967	0.9870488	0.036055673	0.14273867
1.7027763888316238e-09	0.8104423	0.29936945	0.4814395	0.9516781	0.2588669	0.150005
1.7142610250817949e-09	0.80410093	0.3181203	0.48098862	0.8669831	0.44950393	0.20186602
1.7255454451747084e-09	0.79610103	0.33494443	0.4837121	0.75546026	0.5838135	0.28748098
1.7367199098662068e-09	0.7872824	0.34864324	0.48912424	0.64365107	0.65277046	0.3925496
1.7481267391157501e-09	0.7782856	0.35853174	0.49681932	0.55052984	0.66077137	0.5053263
1.7596468261312684e-09	0.7701099	0.36368853	0.5060167	0.48983383	0.61762923	0.6116542
1.7715977656176639e-09	0.7634008	0.36374122	0.51611644	0.46320423	0.534003	0.7042231
1.7838801963437938e-09	0.7589744	0.358523	0.5260562	0.46742883	0.42057538	0.7745734
1.7967808055977865e-09	0.7573104	0.34820104	0.5349654	0.4953715	0.28295067	0.81803113
1.810103210061217e-09	0.75871825	0.33380193	0.5415955	0.53843117	0.13160236	0.8285275
1.8241042556959473e-09	0.76313865	0.3165811	0.54507643	0.5909069	-0.024710342	0.801867
1.8386699257457356e-09	0.77008563	0.29880142	0.54465604	0.65011036	-0.16715167	0.73603505
1.8539365479643747e-09	0.7787777	0.28291532	0.5401158	0.7190237	-0.2723483	0.6337587
1.8695987041751923e-09	0.7878637	0.2718775	0.5320689	0.7990861	-0.3102105	0.5094629
1.8845156274653943e-09	0.7954746	0.26772025	0.52256733	0.8781511	-0.26502818	0.3933359
1.8985300421399227e-09	0.80079573	0.26980576	0.51336545	0.93892145	-0.14917858	0.3058091
1.911757986601811e-09	0.80362034	0.27663767	0.5055643	0.9651343	0.011300729	0.25719747
1.9243398171421795e-09	0.80405664	0.28657693	0.49976653	0.94926494	0.18447311	0.24987002
1.9364468034642205e-09	0.8023973	0.29813915	0.49620834	0.8959597	0.34084055	0.27980354
1.948315298639211e-09	0.79900306	0.31013763	0.494906	0.81883365	0.4599423	0.3390912
1.9601291496945355e-09	0.79428166	0.3215306	0.49578536	0.735398	0.5309114	0.41764453
1.97232249227268e-09	0.7885672	0.33158103	0.49877018	0.66028905	0.5519453	0.50666624
1.984749480385473e-09	0.78254235	0.33909455	0.50356436	0.6072817	0.52578586	0.59349614
1.9976544218882625e-09	0.77680475	0.34332258	0.5097833	0.5811523	0.45984936	0.66944295
2.0110703002118243e-09	0.77209246	0.34360307	0.5167772	0.5815648	0.362813	0.72598094
2.025110501078291e-09	0.7690688	0.33966088	0.5237416	0.6039131	0.2434269	0.7564532
2.0396868529195293e-09	0.76826036	0.33181912	0.52965426	0.6417218	0.11387221	0.75541896
2.054861723931337e-09	0.7698517	0.32100704	0.53359544	0.68985987	-0.011238672	0.720352
2.0706419117950152e-09	0.77366686	0.30878335	0.5348216	0.74583197	-0.11194848	0.6528916
2.0869404725669003e-09	0.7791094	0.29723445	0.5330043	0.80810505	-0.16462822	0.56198233
2.1025617481539016e-09	0.7848419	0.28896722	0.5287905	0.8673353	-0.15246797	0.47086525
2.117629496491069e-09	0.79000306	0.28472766	0.5232072	0.9137125	-0.080236554	0.39624438
2.1321736897431474e-09	0.7939621	0.28455943	0.5172794	0.93531257	0.035103805	0.35048652
2.14585412574026e-09	0.7963177	0.28778222	0.5120063	0.9258339	0.1641453	0.3389045
2.1588710669034684e-09	0.7970967	0.2933732	0.50786906	0.8894725	0.28246304	0.3576359
2.1716218880318006e-09	0.7964343	0.30049184	0.50507367	0.83561915	0.37467194	0.40013957
2.184478550611972e-09	0.7944643	0.3084238	0.503768	0.7756279	0.43154988	0.45924473
2.197720641965889e-09	0.79136294	0.3164006	0.5040837	0.7211662	0.44846842	0.52682805
2.2113837299982126e-09	0.78747773	0.32344127	0.50604117	0.6824419	0.42578077	0.5929921
2.225602917337459e-09	0.78327966	0.32862052	0.5094769	0.66459626	0.36854717	0.64872044
2.2404152980770757e-09	0.77938235	0.33109322	0.51398855	0.6680424	0.28499833	0.68581766
2.2559336222648136e-09	0.7764201	0.33031675	0.5189656	0.6896332	0.18546228	0.69805604
2.2721097697439635e-09	0.7749753	0.32622704	0.5235687	0.7246317	0.084439695	0.68164057
2.2886770612399885e-09	0.77535355	0.31952822	0.526892	0.7679036	0.00092139933	0.63810784
2.3058115370132607e-09	0.77749	0.31137198	0.5283218	0.8158395	-0.047357287	0.57407475
2.3223813070762758e-09	0.7807417	0.30382273	0.52763706	0.859709	-0.04606086	0.5069768
2.338457615782049e-09	0.78439313	0.2980968	0.52527	0.89198846	0.0017745885	0.45098257
2.3540626897823425e-09	0.78780466	0.29489514	0.5218518	0.90502787	0.082880504	0.41660717
2.368833015201749e-09	0.790434	0.29436558	0.5181634	0.89573973	0.17466824	0.40841508
2.3830024656302135e-09	0.7920824	0.2961014	0.514742	0.8680339	0.25844085	0.42352548
2.3970502335981084e-09	0.7926929	0.29964548	0.5119175	0.8288648	0.32222643	0.45688426
2.4114081271261456e-09	0.79222876	0.30454895	0.5099732	0.7865689	0.35800982	0.5026512
2.4262118454941547e-09	0.7907241	0.31016624	0.509192	0.7504022	0.36121985	0.55300313
2.4414944716769357e-09	0.78837365	0.31565768	0.5097312	0.72764444	0.33285013	0.59908307
2.45743307993474e-09	0.7855137	0.32015666	0.51156926	0.72154826	0.27829626	0.6330147
2.4741354758010898e-09	0.78263366	0.32280374	0.514468	0.7319045	0.2065746	0.64808434
2.4915754980049934e-09	0.7803272	0.32295695	0.51791507	0.75574493	0.13089354	0.6401469
2.509468052652587e-09	0.7791341	0.32051867	0.52115625	0.78813237	0.068283394	0.61013204
2.5272000257507116e-09	0.7792798	0.31619418	0.5234334	0.8225805	0.034734853	0.56620145
2.5447108104885148e-09	0.78059405	0.3110575	0.5243746	0.8530219	0.037156984	0.5195703
2.562094596373116e-09	0.78270674	0.3061823	0.5239264	0.87315863	0.07386723	0.48128667
2.578951816222968e-09	0.78508294	0.3025692	0.5223496	0.8775902	0.13289672	0.46042714
2.595014268628961e-09	0.7872271	0.3007126	0.5201414	0.86617714	0.19653536	0.45939955
2.6106686864737268e-09	0.78886425	0.30061397	0.51773447	0.84310716	0.25126696	0.47536162
2.6264306228417652e-09	0.78982127	0.30213583	0.51547384	0.8142672	0.28803214	0.50385636
2.6427355766860958e-09	0.7899594	0.30504674	0.5136939	0.7864122	0.30082425	0.5392563
2.659536074972358e-09	0.7892274	0.3088352	0.5127444	0.76655096	0.28760615	0.5737708
2.676961785463591e-09	0.7877387	0.31279945	0.51283246	0.75885624	0.25188115	0.5999529
2.695234943285766e-09	0.78576416	0.31613278	0.51399624	0.7643954	0.2011977	0.61169976
2.714082030412261e-09	0.7837793	0.31799275	0.5159952	0.7811203	0.14820607	0.6055286
2.7328829606793677e-09	0.7823139	0.31794757	0.5182809	0.8040173	0.10768954	0.58376324
2.751508650037158e-09	0.7816705	0.31618127	0.52029413	0.8276017	0.089464694	0.55330473
2.7702751916699874e-09	0.7819241	0.31320366	0.52162737	0.84685874	0.09732693	0.5222954
2.7891338026099925e-09	0.782963	0.30977648	0.5220118	0.85662293	0.12858386	0.49941638
2.807403341722206e-09	0.7844392	0.3068177	0.5214557	0.8541286	0.17163245	0.49085775
2.8249936400617472e-09	0.7859684	0.30489147	0.5202334	0.8413854	0.21300524	0.49667528
2.8424926293360917e-09	0.787283	0.30420515	0.5186462	0.8226676	0.24350135	0.5136879
2.860497123950792e-09	0.78816235	0.30483502	0.5169935	0.8030734	0.25695604	0.5374856
2.8791770942104933e-09	0.78841	0.30667192	0.51563495	0.78821164	0.2502958	0.5619149
2.8984772065689333e-09	0.78795135	0.3092956	0.5149117	0.78225833	0.22575022	0.58014745
2.918631249850207e-09	0.78688097	0.31207186	0.5150271	0.7864792	0.19018514	0.58698255
2.9387587546139244e-09	0.785542	0.31415224	0.515932	0.7987089	0.15572147	0.58051586
2.9586694894194074e-09	0.78432786	0.3150421	0.51731205	0.8146103	0.1325866	0.56398815
2.978738889567853e-09	0.78353286	0.31462184	0.5187936	0.8298726	0.12661256	0.54288524
2.999227461560296e-09	0.7833494	0.31305277	0.5199948	0.8401678	0.13932498	0.52381593
3.019796726796331e-09	0.7838034	0.31083852	0.5205877	0.8419967	0.16576473	0.51324266
3.039644582253089e-09	0.7846863	0.30870837	0.5204746	0.8353751	0.19495255	0.5138815
3.0590931324283005e-09	0.78572744	0.3071565	0.519792	0.82348156	0.21775167	0.52381784
3.0789264190705253e-09	0.7866937	0.30647394	0.51873744	0.81028414	0.22854002	0.53949475
3.0997351168458206e-09	0.78735155	0.306841	0.5175702	0.80004376	0.22430533	0.5561753
3.121208694865999e-09	0.78749454	0.30817232	0.51665175	0.79645663	0.20664023	0.5679062
3.143194276041747e-09	0.7870867	0.31003618	0.5162734	0.80039114	0.18235391	0.57058245
3.164824463611663e-09	0.78631294	0.31175673	0.5165273	0.80953836	0.1612918	0.56395984
3.186293738902621e-09	0.78544897	0.31284237	0.5172706	0.82028323	0.15025349	0.55141026
3.2082967384906503e-09	0.7847503	0.31302628	0.51826924	0.8291485	0.15240207	0.5375146
3.2309491127556065e-09	0.7844448	0.3122603	0.519205	0.8328015	0.16683494	0.52762216
3.2531550688239726e-09	0.78461874	0.3108898	0.5197499	0.829931	0.18644895	0.5256522
3.274730798597653e-09	0.78515095	0.309432	0.51979524	0.82253724	0.2029341	0.53114843
3.2964211147544003e-09	0.7858594	0.3082937	0.51939124	0.81379396	0.21106589	0.54130286
3.319161953151456e-09	0.7865463	0.30779168	0.5186658	0.80695945	0.20832033	0.55239755
3.3427299425796804e-09	0.7869725	0.3081178	0.5178771	0.80494213	0.19588174	0.5597475
3.366249937470877e-09	0.7869934	0.30910307	0.51733816	0.8082342	0.17992516	0.5602989
3.3894890683997325e-09	0.7866521	0.3103186	0.5172204	0.81478757	0.16752662	0.5546231
3.4122140031218034e-09	0.78612185	0.3113083	0.51751375	0.8215599	0.16326894	0.5458903
3.4336811308651577e-09	0.78562444	0.3117736	0.5180477	0.82587385	0.16739376	0.53815556
3.453981839544767e-09	0.7852997	0.31169474	0.5186216	0.82678014	0.1766786	0.53384566
3.4737805819171607e-09	0.78519857	0.31118646	0.51909536	0.82458586	0.18743098	0.53361064
3.4932944105132065e-09	0.7853205	0.31042498	0.5193703	0.8203438	0.19623095	0.5369787
3.512588743465576e-09	0.7856153	0.30962008	0.51940536	0.815578	0.20069946	0.5425325
3.531796749304919e-09	0.7860008	0.30896294	0.5192189	0.8117492	0.20002252	0.5484475
3.5509511194929437e-09	0.7863815	0.30859497	0.5188776	0.8098795	0.19489579	0.55298805
3.5700447763593014e-09	0.7866713	0.30857745	0.51847935	0.81030494	0.18719979	0.55497766
3.5891500157708748e-09	0.78681326	0.3088844	0.51812524	0.81268996	0.17931853	0.55407006
3.6082273675753046e-09	0.7867887	0.30941498	0.5179001	0.81619626	0.17352515	0.5507551
3.627227148649588e-09	0.7866208	0.31002146	0.51785034	0.8197461	0.17131467	0.54618376
3.646184964959075e-09	0.7863646	0.31055328	0.51797605	0.8223493	0.17302962	0.5417531
3.665096839464762e-09	0.78609127	0.31088936	0.5182369	0.82333803	0.17787921	0.53871346
3.6839606092405376e-09	0.7858699	0.31096485	0.5185643	0.8225451	0.18423192	0.53781813
3.702833513954016e-09	0.78575104	0.31078008	0.51888084	0.82032317	0.19017349	0.53915304
3.7217014254355368e-09	0.78575844	0.31039488	0.51911694	0.81741923	0.19403815	0.5421695
3.7405178503490135e-09	0.7858845	0.3099125	0.5192267	0.8147302	0.1948942	0.54587376
3.759360907886607e-09	0.78609496	0.30944756	0.5191979	0.81299585	0.1927463	0.5491812
3.778240853322613e-09	0.78633887	0.30910414	0.5190499	0.8126297	0.18841742	0.5511916
3.7970928574912775e-09	0.78656065	0.30895153	0.5188296	0.8136242	0.18329704	0.5514305
3.815945621117901e-09	0.78671426	0.3090079	0.5185962	0.8155947	0.17887318	0.5499649
3.834814511723675e-09	0.78677315	0.30924243	0.5184081	0.8179255	0.17633794	0.5473261
3.853657329433944e-09	0.7867343	0.30958438	0.5183089	0.81993955	0.17628215	0.5443446
3.872535735229103e-09	0.7866175	0.3099447	0.5183178	0.8210967	0.17855676	0.54187995
3.891443122782233e-09	0.78645927	0.31023544	0.5184287	0.8211189	0.18236554	0.5405996
3.9103161366645e-09	0.78630376	0.31039062	0.51861066	0.8200726	0.18650591	0.5407885
3.929218225598319e-09	0.78619045	0.3103821	0.51881963	0.8183282	0.189784	0.5422892
3.948121546492323e-09	0.7861466	0.31022108	0.5190078	0.816438	0.19132243	0.54458195
3.9670000076916275e-09	0.78618085	0.3099542	0.5191359	0.81495637	0.19081151	0.5469572
3.985926093057454e-09	0.7862836	0.30964798	0.5191817	0.8142705	0.18853839	0.5487433
4.004888936028826e-09	0.78642964	0.3093742	0.5191435	0.8145199	0.18526329	0.5494714
4.023825523044996e-09	0.78658515	0.309193	0.51903933	0.8155656	0.18198998	0.5490058
4.042754070231968e-09	0.7867169	0.30913666	0.5189018	0.8170565	0.17964192	0.5475622
4.061654908361153e-09	0.78679955	0.30920637	0.51876885	0.81854266	0.17882101	0.5456188
4.080577605443014e-09	0.7868215	0.30937394	0.5186738	0.8196103	0.17965889	0.5437541
4.099494256123699e-09	0.7867857	0.3095902	0.5186394	0.8199809	0.18181174	0.54249483
4.118335261246048e-09	0.78670895	0.30979759	0.51867205	0.8195961	0.18457006	0.5421565
4.13713442740018e-09	0.78661597	0.3099466	0.5187617	0.81861836	0.18711805	0.54276466
4.155945824082698e-09	0.78653294	0.31000498	0.51888645	0.81736135	0.18876098	0.5440851
4.174718738005397e-09	0.7864821	0.30996332	0.51901776	0.8162017	0.18909943	0.5456961
4.193475689015736e-09	0.7864764	0.30983633	0.51912785	0.8154548	0.1881335	0.5471314
4.212218599892697e-09	0.78651714	0.30965698	0.51919615	0.81529874	0.18622035	0.5480054
4.230917843511796e-09	0.7865951	0.30946812	0.5192131	0.8157327	0.18395652	0.54811555
4.249622658155676e-09	0.78669345	0.30931062	0.51918155	0.81659716	0.181982	0.54748464
4.268363002132847e-09	0.78679204	0.30921552	0.51911527	0.81762964	0.18082051	0.54633135
4.287093079503146e-09	0.78687155	0.30919778	0.5190349	0.8185341	0.18074481	0.5450098
4.305803146329714e-09	0.78691876	0.30925316	0.5189629	0.8190697	0.18170445	0.5438958
4.324504304688302e-09	0.7869291	0.3093608	0.5189181	0.81911296	0.18336816	0.543282
4.343199988758366e-09	0.7869063	0.30948967	0.5189115	0.8186826	0.18523145	0.5433045
4.361926817809868e-09	0.7868617	0.30960625	0.51894486	0.8179267	0.18677162	0.5439163
4.380675217131597e-09	0.78681064	0.30968204	0.51901066	0.81707495	0.18758297	0.5449121
4.399419883907041e-09	0.7867689	0.30969977	0.5190942	0.81637096	0.18748844	0.5459909
4.418137701935218e-09	0.78674924	0.30965713	0.51917803	0.81599903	0.186577	0.54684955
4.436870307954528e-09	0.7867578	0.30956566	0.5192457	0.8160375	0.18515097	0.5472691
4.455620214204672e-09	0.7867944	0.30944717	0.51928586	0.816449	0.1836342	0.54716206
4.474396995205115e-09	0.78685224	0.3093282	0.519294	0.817097	0.18244791	0.54659134
4.49317759176714e-09	0.7869201	0.30923364	0.51927364	0.8177886	0.18189849	0.5457437
4.511927594756758e-09	0.7869849	0.30918092	0.5192344	0.8183301	0.18209572	0.54487234
4.530668438241912e-09	0.7870358	0.30917627	0.51918966	0.8185839	0.18293445	0.5442171
4.5494444982617264e-09	0.78706574	0.30921465	0.5191529	0.81849843	0.18414569	0.54394275
4.568239232162361e-09	0.7870729	0.3092815	0.5191349	0.8181179	0.1853713	0.5441019
4.587043431287071e-09	0.78706074	0.30935663	0.51914155	0.8175668	0.18627198	0.54462165
4.605832862128392e-09	0.7870372	0.30941918	0.5191723	0.81700915	0.18662143	0.5453345
4.624594474863661e-09	0.7870122	0.30945307	0.51922107	0.81659955	0.18636234	0.5460306
4.6433739560022466e-09	0.7869952	0.3094499	0.5192782	0.8164389	0.18560763	0.54652166
4.662173141538332e-09	0.786993	0.3094104	0.5193329	0.81655484	0.18459581	0.5466867
4.680995888175567e-09	0.7870089	0.30934358	0.51937556	0.81689763	0.18362124	0.54650116
4.6998164798735105e-09	0.78704125	0.30926418	0.5193999	0.81735724	0.18295014	0.54603994
4.71860888220211e-09	0.78708506	0.30918896	0.51940453	0.81779975	0.18274553	0.5454492
4.737399227645973e-09	0.7871328	0.30913222	0.51939285	0.8181055	0.18303128	0.54489917
4.75620607787596e-09	0.787177	0.3091029	0.5193715	0.8182003	0.18369575	0.54453784
4.7750329445477386e-09	0.7872112	0.30910316	0.5193491	0.8180718	0.18453193	0.54445153
4.793853575056052e-09	0.78723156	0.30912802	0.5193336	0.81777	0.18529749	0.5446458
4.812675327262938e-09	0.7872382	0.30916718	0.5193312	0.81739044	0.18578696	0.5450474
4.831463648705403e-09	0.7872341	0.30920768	0.5193441	0.81704324	0.1858865	0.5455306
4.850258624369138e-09	0.7872246	0.3092374	0.51937115	0.81682044	0.18559666	0.5459588